 Entering Gaussian System, Link 0=g16
 Initial command:
 /opt/g16/l1.exe "/home/jh-li/scratch/g16/Gau-383939.inp" -scrdir="/home/jh-li/scratch/g16/"
 Entering Link 1 = /opt/g16/l1.exe PID=    383947.
  
 Copyright (c) 1988-2019, Gaussian, Inc.  All Rights Reserved.
  
 This is part of the Gaussian(R) 16 program.  It is based on
 the Gaussian(R) 09 system (copyright 2009, Gaussian, Inc.),
 the Gaussian(R) 03 system (copyright 2003, Gaussian, Inc.),
 the Gaussian(R) 98 system (copyright 1998, Gaussian, Inc.),
 the Gaussian(R) 94 system (copyright 1995, Gaussian, Inc.),
 the Gaussian 92(TM) system (copyright 1992, Gaussian, Inc.),
 the Gaussian 90(TM) system (copyright 1990, Gaussian, Inc.),
 the Gaussian 88(TM) system (copyright 1988, Gaussian, Inc.),
 the Gaussian 86(TM) system (copyright 1986, Carnegie Mellon
 University), and the Gaussian 82(TM) system (copyright 1983,
 Carnegie Mellon University). Gaussian is a federally registered
 trademark of Gaussian, Inc.
  
 This software contains proprietary and confidential information,
 including trade secrets, belonging to Gaussian, Inc.
  
 This software is provided under written license and may be
 used, copied, transmitted, or stored only in accord with that
 written license.
  
 The following legend is applicable only to US Government
 contracts under FAR:
  
                    RESTRICTED RIGHTS LEGEND
  
 Use, reproduction and disclosure by the US Government is
 subject to restrictions as set forth in subparagraphs (a)
 and (c) of the Commercial Computer Software - Restricted
 Rights clause in FAR 52.227-19.
  
 Gaussian, Inc.
 340 Quinnipiac St., Bldg. 40, Wallingford CT 06492
  
  
 ---------------------------------------------------------------
 Warning -- This program may not be used in any manner that
 competes with the business of Gaussian, Inc. or will provide
 assistance to any competitor of Gaussian, Inc.  The licensee
 of this program is prohibited from giving any competitor of
 Gaussian, Inc. access to this program.  By using this program,
 the user acknowledges that Gaussian, Inc. is engaged in the
 business of creating and licensing software in the field of
 computational chemistry and represents and warrants to the
 licensee that it is not a competitor of Gaussian, Inc. and that
 it will not use this program in any manner prohibited above.
 ---------------------------------------------------------------
  

 Cite this work as:
 Gaussian 16, Revision C.01,
 M. J. Frisch, G. W. Trucks, H. B. Schlegel, G. E. Scuseria, 
 M. A. Robb, J. R. Cheeseman, G. Scalmani, V. Barone, 
 G. A. Petersson, H. Nakatsuji, X. Li, M. Caricato, A. V. Marenich, 
 J. Bloino, B. G. Janesko, R. Gomperts, B. Mennucci, H. P. Hratchian, 
 J. V. Ortiz, A. F. Izmaylov, J. L. Sonnenberg, D. Williams-Young, 
 F. Ding, F. Lipparini, F. Egidi, J. Goings, B. Peng, A. Petrone, 
 T. Henderson, D. Ranasinghe, V. G. Zakrzewski, J. Gao, N. Rega, 
 G. Zheng, W. Liang, M. Hada, M. Ehara, K. Toyota, R. Fukuda, 
 J. Hasegawa, M. Ishida, T. Nakajima, Y. Honda, O. Kitao, H. Nakai, 
 T. Vreven, K. Throssell, J. A. Montgomery, Jr., J. E. Peralta, 
 F. Ogliaro, M. J. Bearpark, J. J. Heyd, E. N. Brothers, K. N. Kudin, 
 V. N. Staroverov, T. A. Keith, R. Kobayashi, J. Normand, 
 K. Raghavachari, A. P. Rendell, J. C. Burant, S. S. Iyengar, 
 J. Tomasi, M. Cossi, J. M. Millam, M. Klene, C. Adamo, R. Cammi, 
 J. W. Ochterski, R. L. Martin, K. Morokuma, O. Farkas, 
 J. B. Foresman, and D. J. Fox, Gaussian, Inc., Wallingford CT, 2019.
 
 ******************************************
 Gaussian 16:  ES64L-G16RevC.01  3-Jul-2019
                12-Oct-2023 
 ******************************************
 %nproc=1
 Will use up to    1 processors via shared memory.
 %oldchk=CH3CN-ts-opt-freq.chk
 Copying data from "CH3CN-ts-opt-freq.chk" to current chk file "/home/jh-li/scratch/g16/Gau-383947.chk"
 IOpt=  2 FromEx=T IUOpen= 4 IOptOp= 5 NList=   0 IFRang= 0 IUIn= 4 IUOut= 2.
 ---------------------------------------------------------------------
 #p external="python3 -u ../../src/gamesp.py" irc=(rcfc) geom=allcheck
 ---------------------------------------------------------------------
 1/6=10,10=5,18=10,26=1,29=7,38=1,44=3,172=1/1,23;
 2/12=2,29=1,40=1/2;
 3/11=9,14=-4,25=1,30=1,41=9900000,43=2,71=2,140=1/1;
 4/20=17,22=1002,24=3,113=1,114=1/2;
 6/7=2,8=2,9=2,10=2/1;
 7/44=-1/16;
 1/6=10,18=10,26=1,44=3/23(2);
 2/29=1/2;
 99/5=20/99;
 2/29=1/2;
 3/11=9,14=-2,25=1,30=1,41=9900000,43=2,71=2,140=1/1;
 4/16=2,20=17,22=1002,24=3,113=1,114=1/2;
 7/44=-1/16;
 1/6=10,18=10,26=1,44=3/23(-4);
 2/29=1/2;
 6/7=2,8=2,9=2,10=2/1;
 99/5=20,9=10/99;
 Leave Link    1 at Thu Oct 12 11:57:45 2023, MaxMem=   104857600 cpu:               0.0 elap:               0.0
 (Enter /opt/g16/l101.exe)
 Structure from the checkpoint file:  "/home/jh-li/scratch/g16/Gau-383947.chk"
 -------------------
 Title Card Required
 -------------------
 Charge =  0 Multiplicity = 1
 No Z-Matrix found in chk file; cartesian coordinates used.
  C                                                 0.004915977564      0.063724161046      0.982598498717
  H                                                -0.031912615889      1.108474456086      1.280862162246
  H                                                -0.823011755826     -0.523904029345      1.371309213845
  H                                                 0.955456425991     -0.381047797117      1.275746591636
  N                                                 0.519411428639     -0.279238676351     -0.739965278149
  C                                                -0.559530650480      0.241881945681     -0.703576338296
 Recover connectivity data from disk.
 ITRead=  0  0  0  0  0  0
 MicOpt= -1 -1 -1 -1 -1 -1
 NAtoms=      6 NQM=        6 NQMF=       0 NMMI=      0 NMMIF=      0
                NMic=       0 NMicF=      0.
                    Isotopes and Nuclear Properties:
 (Nuclear quadrupole moments (NQMom) in fm**2, nuclear magnetic moments (NMagM)
  in nuclear magnetons)

  Atom         1           2           3           4           5           6
 IAtWgt=          12           1           1           1          14          12
 AtmWgt=  12.0000000   1.0078250   1.0078250   1.0078250  14.0030740  12.0000000
 NucSpn=           0           1           1           1           2           0
 AtZEff=   3.6000000   1.0000000   1.0000000   1.0000000   4.5500000   3.6000000
 NQMom=    0.0000000   0.0000000   0.0000000   0.0000000   2.0440000   0.0000000
 NMagM=    0.0000000   2.7928460   2.7928460   2.7928460   0.4037610   0.0000000
 AtZNuc=   6.0000000   1.0000000   1.0000000   1.0000000   7.0000000   6.0000000
 Leave Link  101 at Thu Oct 12 11:57:46 2023, MaxMem=   104857600 cpu:               0.2 elap:               0.2
 (Enter /opt/g16/l123.exe)
 IRC-IRC-IRC-IRC-IRC-IRC-IRC-IRC-IRC-IRC-IRC-IRC-IRC-IRC-IRC-IRC-IRC-IRC
 ------------------------------------------------------------------------
 INPUT DATA FOR L123
 ------------------------------------------------------------------------
 GENERAL PARAMETERS:
 Follow reaction path in both directions.
 Maximum points per path      =  10
 Step size                    =   0.100 bohr
 Integration scheme           = HPC                                 
    Redo corrector integration= Yes                                 
    DWI Weight Power          =  2
    DWI will use Hessian update vectors when possible.
    Max correction cycles     =  10
 Initial Hessian              = ReadFC from chk
 Hessian evaluation           = All updating
 Hessian updating method      = Bofill                              
 ------------------------------------------------------------------------
          ******** Start new reaction path calculation ********
 RCFC Option Requested - Data Read From Chk File:
 "/home/jh-li/scratch/g16/Gau-383947.chk"
   Energy From Chk =   -132.6525176

 Current Structure is TS -> form Hessian eigenvectors.
                            Recovering Hessian eigenvectors from chk file.
 Supplied step size of   0.1000 bohr.
    Integration on MW PES will use step size of   0.2820 sqrt(amu)*bohr.
 Point Number:   0          Path Number:   1
 Calculating another point on the path.
 Point Number  1 in FORWARD path direction.
 Using LQA Reaction Path Following.
 IRC-IRC-IRC-IRC-IRC-IRC-IRC-IRC-IRC-IRC-IRC-IRC-IRC-IRC-IRC-IRC-IRC-IRC
 Leave Link  123 at Thu Oct 12 11:57:46 2023, MaxMem=   104857600 cpu:               0.0 elap:               0.0
 (Enter /opt/g16/l202.exe)
                          Input orientation:                          
 ---------------------------------------------------------------------
 Center     Atomic      Atomic             Coordinates (Angstroms)
 Number     Number       Type             X           Y           Z
 ---------------------------------------------------------------------
      1          6           0       -0.028241    0.072340    1.060360
      2          1           0       -0.057146    1.114070    1.370291
      3          1           0       -0.848197   -0.518737    1.460917
      4          1           0        0.928462   -0.376551    1.329375
      5          7           0        0.508140   -0.282692   -0.689604
      6          6           0       -0.566661    0.239165   -0.605074
 ---------------------------------------------------------------------
                    Distance matrix (angstroms):
                    1          2          3          4          5
     1  C    0.000000
     2  H    1.087242   0.000000
     3  H    1.087265   1.816599   0.000000
     4  H    1.090483   1.787470   1.787187   0.000000
     5  N    1.864436   2.552187   2.553450   2.064402   0.000000
     6  C    1.758237   2.219715   2.218558   2.521228   1.197780
                    6
     6  C    0.000000
 Symmetry turned off by external request.
 Stoichiometry    C2H3N
 Framework group  C1[X(C2H3N)]
 Deg. of freedom    12
 Full point group                 C1      NOp   1
 Rotational constants (GHZ):          41.0135520          15.6372547          12.2322495
 Leave Link  202 at Thu Oct 12 11:57:46 2023, MaxMem=   104857600 cpu:               0.0 elap:               0.0
 (Enter /opt/g16/l301.exe)
 Standard basis: STO-3G (5D, 7F)
 Ernie: Thresh=  0.10000D-02 Tol=  0.10000D-05 Strict=F.
    18 basis functions,    54 primitive gaussians,    18 cartesian basis functions
    11 alpha electrons       11 beta electrons
       nuclear repulsion energy        59.7640600750 Hartrees.
 IExCor=    0 DFT=F Ex=HF Corr=None ExCW=0 ScaHFX=  1.000000
 ScaDFX=  1.000000  1.000000  1.000000  1.000000 ScalE2=  1.000000  1.000000
 IRadAn=      5 IRanWt=     -1 IRanGd=            0 ICorTp=0 IEmpDi=  4
 NAtoms=    6 NActive=    6 NUniq=    6 SFac= 1.00D+00 NAtFMM=   60 NAOKFM=F Big=F
 Integral buffers will be    131072 words long.
 Raffenetti 1 integral format.
 Two-electron integral symmetry is turned off.
 Leave Link  301 at Thu Oct 12 11:57:46 2023, MaxMem=   104857600 cpu:               0.0 elap:               0.0
 (Enter /opt/g16/l402.exe)
 External calculation of energy and first derivatives.
 Running external command "python3 -u ../../src/gamesp.py R"
         input file       "/home/jh-li/scratch/g16/Gau-383947.EIn"
         output file      "/home/jh-li/scratch/g16/Gau-383947.EOu"
         message file     "/home/jh-li/scratch/g16/Gau-383947.EMs"
         fchk file        "/home/jh-li/scratch/g16/Gau-383947.EFC"
         mat. el file     "/home/jh-li/scratch/g16/Gau-383947.EUF"
>>> Running Amesp...
>>> Parsing Amesp output...
>>> 大师大法好！
 Recovered energy= -132.652808650     dipole=      0.104700000000      0.093300000000      2.608400000000
 NRF= 0 NRA=   0 NVA=   0 HaveQM=F NVQ=       0
 Convergence limit is  0.750E-04 MaxStp= 10000 StMxLn= 3.00D-04 StpMin= 1.00D-06.
 Convergence criteria             0.00011250 0.00007500 0.00045000 0.00030000
  Step  NS  ND Rises OKQ   Scale  Max. Force  RMS Force Max. Disp.  RMS Disp.     Energy   Flag
     1   0   0   F    T  1.00D+00 0.00000000 0.00000000 0.00000000 0.00000000 -132.6528086 ====
 Running external command "python3 -u ../../src/gamesp.py R"
         input file       "/home/jh-li/scratch/g16/Gau-383947.EIn"
         output file      "/home/jh-li/scratch/g16/Gau-383947.EOu"
         message file     "/home/jh-li/scratch/g16/Gau-383947.EMs"
         fchk file        "/home/jh-li/scratch/g16/Gau-383947.EFC"
         mat. el file     "/home/jh-li/scratch/g16/Gau-383947.EUF"
>>> Running Amesp...
>>> Parsing Amesp output...
>>> 大师大法好！
 Recovered energy= -132.652808650     dipole=      0.104700000000      0.093300000000      2.608400000000
 Energy=    -132.652809     NIter=   0.
 Dipole moment=       0.104700       0.093300       2.608400
 Leave Link  402 at Thu Oct 12 11:57:49 2023, MaxMem=   104857600 cpu:               0.0 elap:               3.5
 (Enter /opt/g16/l601.exe)
 Leave Link  601 at Thu Oct 12 11:57:49 2023, MaxMem=   104857600 cpu:               0.0 elap:               0.0
 (Enter /opt/g16/l716.exe)
 Dipole        = 1.04700000D-01 9.33000000D-02 2.60840000D+00
 -------------------------------------------------------------------
 Center     Atomic                   Forces (Hartrees/Bohr)
 Number     Number              X              Y              Z
 -------------------------------------------------------------------
      1        6          -0.002606683    0.001266327    0.000628343
      2        1          -0.000057125   -0.000027044    0.000250939
      3        1          -0.000004126    0.000119812    0.000330184
      4        1          -0.000354299    0.000189555   -0.000026974
      5        7          -0.000957432    0.000140742   -0.005015692
      6        6           0.003979664   -0.001689392    0.003833200
 -------------------------------------------------------------------
 Cartesian Forces:  Max     0.005015692 RMS     0.001952556
 Leave Link  716 at Thu Oct 12 11:57:49 2023, MaxMem=   104857600 cpu:               0.0 elap:               0.0
 (Enter /opt/g16/l123.exe)
 IRC-IRC-IRC-IRC-IRC-IRC-IRC-IRC-IRC-IRC-IRC-IRC-IRC-IRC-IRC-IRC-IRC-IRC
 Pt  1 Step number   1 out of a maximum of  10
 Using modified Bulirsch-Stoer corrector integration.
   Using distance weighted interpolants to fit PES.
 PreDWI: IReCr0= 2 IReCr1= 1 IReCr2= 1 IReCr3= 1
 Modified Bulirsch-Stoer Extrapolation Cycles:
    EPS =    0.000010000000000
    Cycle     1 NS=    48
      PEZero:  N= 2 I= 1 D=  7.34D-04 Err=  1.36D-03
    Cycle     2 NS=    64 Truncation Error =  0.001356896
      PEZero:  N= 3 I= 2 D=  7.34D-04 Err=  9.03D-04
      PEZero:  N= 3 I= 1 D=  1.47D-03 Err=  2.32D-06
    Cycle     3 NS=    96 Truncation Error =  0.000002317
 BS completed in    3 cycles and     208 integration steps.
 Maximum DWI energy   std dev =  0.000005427 at pt     1
 Maximum DWI gradient std dev =  0.227070724 at pt     4
 SUMMARY OF CORRECTOR INTEGRATION:
   Predictor End Point Energy =  -132.652809
   Old End Point Energy       =  -132.652809
   Corrected End Point Energy =  -132.652812
   Predictor End-Start Dist.  =     0.282005
   Old End-Start Dist.        =     0.282005
   New End-Start Dist.        =     0.281749
   New End-Old End Dist.      =     0.008998
 CORRECTOR INTEGRATION CONVERGENCE:
   Recorrection delta-x convergence threshold:    0.010000
   Delta-x Convergence Met
 Point Number:   1          Path Number:   1
                    CURRENT STRUCTURE
                Cartesian Coordinates (Ang):                
 ---------------------------------------------------------------------
 Center     Atomic                     Coordinates (Angstroms)
 Number     Number                        X           Y           Z
 ---------------------------------------------------------------------
      1          6                   -0.028250    0.072428    1.060672
      2          1                   -0.057207    1.114125    1.370370
      3          1                   -0.848130   -0.518075    1.462047
      4          1                    0.927791   -0.375746    1.331907
      5          7                    0.507614   -0.282581   -0.689754
      6          6                   -0.566048    0.238853   -0.605488
 ---------------------------------------------------------------------
   CHANGE IN THE REACTION COORDINATE =    0.28175
   NET REACTION COORDINATE UP TO THIS POINT =    0.28175
  # OF POINTS ALONG THE PATH =   1
  # OF STEPS =   1

 Calculating another point on the path.
 Point Number  2 in FORWARD path direction.
 Using LQA Reaction Path Following.
   LQA: T_Est iteration completed in    3 iterations.
 IRC-IRC-IRC-IRC-IRC-IRC-IRC-IRC-IRC-IRC-IRC-IRC-IRC-IRC-IRC-IRC-IRC-IRC
 Leave Link  123 at Thu Oct 12 11:57:49 2023, MaxMem=   104857600 cpu:               0.0 elap:               0.0
 (Enter /opt/g16/l202.exe)
                          Input orientation:                          
 ---------------------------------------------------------------------
 Center     Atomic      Atomic             Coordinates (Angstroms)
 Number     Number       Type             X           Y           Z
 ---------------------------------------------------------------------
      1          6           0       -0.043932    0.080364    1.064576
      2          1           0       -0.064795    1.119083    1.385439
      3          1           0       -0.856126   -0.512659    1.478373
      4          1           0        0.917403   -0.371671    1.313784
      5          7           0        0.513399   -0.286886   -0.714067
      6          6           0       -0.555070    0.234798   -0.582063
 ---------------------------------------------------------------------
                    Distance matrix (angstroms):
                    1          2          3          4          5
     1  C    0.000000
     2  H    1.087348   0.000000
     3  H    1.087457   1.815881   0.000000
     4  H    1.091148   1.786671   1.786721   0.000000
     5  N    1.899753   2.592100   2.594873   2.069441   0.000000
     6  C    1.731050   2.212103   2.212402   2.475928   1.196330
                    6
     6  C    0.000000
 Symmetry turned off by external request.
 Stoichiometry    C2H3N
 Framework group  C1[X(C2H3N)]
 Deg. of freedom    12
 Full point group                 C1      NOp   1
 Rotational constants (GHZ):          41.8463581          15.3952129          12.1541393
 Leave Link  202 at Thu Oct 12 11:57:49 2023, MaxMem=   104857600 cpu:               0.0 elap:               0.0
 (Enter /opt/g16/l301.exe)
 Standard basis: STO-3G (5D, 7F)
 Ernie: Thresh=  0.10000D-02 Tol=  0.10000D-05 Strict=F.
    18 basis functions,    54 primitive gaussians,    18 cartesian basis functions
    11 alpha electrons       11 beta electrons
       nuclear repulsion energy        59.7149223638 Hartrees.
 IExCor=    0 DFT=F Ex=HF Corr=None ExCW=0 ScaHFX=  1.000000
 ScaDFX=  1.000000  1.000000  1.000000  1.000000 ScalE2=  1.000000  1.000000
 IRadAn=      5 IRanWt=     -1 IRanGd=            0 ICorTp=0 IEmpDi=  4
 NAtoms=    6 NActive=    6 NUniq=    6 SFac= 1.00D+00 NAtFMM=   60 NAOKFM=F Big=F
 Integral buffers will be    131072 words long.
 Raffenetti 1 integral format.
 Two-electron integral symmetry is turned off.
 Leave Link  301 at Thu Oct 12 11:57:49 2023, MaxMem=   104857600 cpu:               0.1 elap:               0.0
 (Enter /opt/g16/l402.exe)
 External calculation of energy and first derivatives.
 Running external command "python3 -u ../../src/gamesp.py R"
         input file       "/home/jh-li/scratch/g16/Gau-383947.EIn"
         output file      "/home/jh-li/scratch/g16/Gau-383947.EOu"
         message file     "/home/jh-li/scratch/g16/Gau-383947.EMs"
         fchk file        "/home/jh-li/scratch/g16/Gau-383947.EFC"
         mat. el file     "/home/jh-li/scratch/g16/Gau-383947.EUF"
>>> Running Amesp...
>>> Parsing Amesp output...
>>> 大师大法好！
 Recovered energy= -132.653752427     dipole=      0.047500000000      0.119500000000      2.561200000000
 NRF= 0 NRA=   0 NVA=   0 HaveQM=F NVQ=       0
 Convergence limit is  0.750E-04 MaxStp= 10000 StMxLn= 3.00D-04 StpMin= 1.00D-06.
 Convergence criteria             0.00011250 0.00007500 0.00045000 0.00030000
  Step  NS  ND Rises OKQ   Scale  Max. Force  RMS Force Max. Disp.  RMS Disp.     Energy   Flag
     1   0   0   F    T  1.00D+00 0.00000000 0.00000000 0.00000000 0.00000000 -132.6537524 ====
 Running external command "python3 -u ../../src/gamesp.py R"
         input file       "/home/jh-li/scratch/g16/Gau-383947.EIn"
         output file      "/home/jh-li/scratch/g16/Gau-383947.EOu"
         message file     "/home/jh-li/scratch/g16/Gau-383947.EMs"
         fchk file        "/home/jh-li/scratch/g16/Gau-383947.EFC"
         mat. el file     "/home/jh-li/scratch/g16/Gau-383947.EUF"
>>> Running Amesp...
>>> Parsing Amesp output...
>>> 大师大法好！
 Recovered energy= -132.653752427     dipole=      0.047500000000      0.119500000000      2.561200000000
 Energy=    -132.653752     NIter=   0.
 Dipole moment=       0.047500       0.119500       2.561200
 Leave Link  402 at Thu Oct 12 11:57:53 2023, MaxMem=   104857600 cpu:               0.0 elap:               3.3
 (Enter /opt/g16/l716.exe)
 Dipole        = 4.75000000D-02 1.19500000D-01 2.56120000D+00
 -------------------------------------------------------------------
 Center     Atomic                   Forces (Hartrees/Bohr)
 Number     Number              X              Y              Z
 -------------------------------------------------------------------
      1        6          -0.005138529    0.002598596    0.001593548
      2        1          -0.000298747    0.000065434    0.000617842
      3        1          -0.000178817    0.000277322    0.000555507
      4        1          -0.000624598    0.000295817   -0.000217652
      5        7          -0.001915774    0.000287021   -0.010244920
      6        6           0.008156465   -0.003524191    0.007695675
 -------------------------------------------------------------------
 Cartesian Forces:  Max     0.010244920 RMS     0.003972101
 Leave Link  716 at Thu Oct 12 11:57:53 2023, MaxMem=   104857600 cpu:               0.0 elap:               0.0
 (Enter /opt/g16/l123.exe)
 IRC-IRC-IRC-IRC-IRC-IRC-IRC-IRC-IRC-IRC-IRC-IRC-IRC-IRC-IRC-IRC-IRC-IRC
 Pt  2 Step number   1 out of a maximum of  10
 Using modified Bulirsch-Stoer corrector integration.
   Using distance weighted interpolants to fit PES.
 PreDWI: IReCr0= 2 IReCr1= 1 IReCr2= 1 IReCr3= 1
 Modified Bulirsch-Stoer Extrapolation Cycles:
    EPS =    0.000010000000000
    Cycle     1 NS=    48
      PEZero:  N= 2 I= 1 D=  1.47D-03 Err=  3.85D-05
    Cycle     2 NS=    64 Truncation Error =  0.000038498
      PEZero:  N= 3 I= 2 D=  1.47D-03 Err=  2.55D-05
      PEZero:  N= 3 I= 1 D=  2.94D-03 Err=  2.08D-07
    Cycle     3 NS=    96 Truncation Error =  0.000000208
 BS completed in    3 cycles and     208 integration steps.
 Maximum DWI energy   std dev =  0.000007821 at pt    65
 Maximum DWI gradient std dev =  0.154176089 at pt    55
 SUMMARY OF CORRECTOR INTEGRATION:
   Predictor End Point Energy =  -132.653752
   Old End Point Energy       =  -132.653752
   Corrected End Point Energy =  -132.653764
   Predictor End-Start Dist.  =     0.281906
   Old End-Start Dist.        =     0.281906
   New End-Start Dist.        =     0.281764
   New End-Old End Dist.      =     0.012842
 CORRECTOR INTEGRATION CONVERGENCE:
   Recorrection delta-x convergence threshold:    0.010000
   Delta-x Convergence NOT Met
 IRC-IRC-IRC-IRC-IRC-IRC-IRC-IRC-IRC-IRC-IRC-IRC-IRC-IRC-IRC-IRC-IRC-IRC
 Leave Link  123 at Thu Oct 12 11:57:53 2023, MaxMem=   104857600 cpu:               0.0 elap:               0.0
 (Enter /opt/g16/l202.exe)
                          Input orientation:                          
 ---------------------------------------------------------------------
 Center     Atomic      Atomic             Coordinates (Angstroms)
 Number     Number       Type             X           Y           Z
 ---------------------------------------------------------------------
      1          6           0       -0.043860    0.080403    1.064935
      2          1           0       -0.065774    1.118882    1.386691
      3          1           0       -0.856394   -0.511837    1.479108
      4          1           0        0.916577   -0.371039    1.315899
      5          7           0        0.512467   -0.286491   -0.714143
      6          6           0       -0.554003    0.234259   -0.582602
 ---------------------------------------------------------------------
                    Distance matrix (angstroms):
                    1          2          3          4          5
     1  C    0.000000
     2  H    1.087403   0.000000
     3  H    1.087428   1.814625   0.000000
     4  H    1.090514   1.786026   1.786026   0.000000
     5  N    1.899797   2.592863   2.595171   2.071599   0.000000
     6  C    1.731559   2.213378   2.213311   2.476549   1.194086
                    6
     6  C    0.000000
 Symmetry turned off by external request.
 Stoichiometry    C2H3N
 Framework group  C1[X(C2H3N)]
 Deg. of freedom    12
 Full point group                 C1      NOp   1
 Rotational constants (GHZ):          41.9667795          15.3833311          12.1555154
 Leave Link  202 at Thu Oct 12 11:57:53 2023, MaxMem=   104857600 cpu:               0.0 elap:               0.0
 (Enter /opt/g16/l301.exe)
 Standard basis: STO-3G (5D, 7F)
 Ernie: Thresh=  0.10000D-02 Tol=  0.10000D-05 Strict=F.
    18 basis functions,    54 primitive gaussians,    18 cartesian basis functions
    11 alpha electrons       11 beta electrons
       nuclear repulsion energy        59.7441920021 Hartrees.
 IExCor=    0 DFT=F Ex=HF Corr=None ExCW=0 ScaHFX=  1.000000
 ScaDFX=  1.000000  1.000000  1.000000  1.000000 ScalE2=  1.000000  1.000000
 IRadAn=      5 IRanWt=     -1 IRanGd=            0 ICorTp=0 IEmpDi=  4
 NAtoms=    6 NActive=    6 NUniq=    6 SFac= 1.00D+00 NAtFMM=   60 NAOKFM=F Big=F
 Integral buffers will be    131072 words long.
 Raffenetti 1 integral format.
 Two-electron integral symmetry is turned off.
 Leave Link  301 at Thu Oct 12 11:57:53 2023, MaxMem=   104857600 cpu:               0.0 elap:               0.0
 (Enter /opt/g16/l402.exe)
 External calculation of energy and first derivatives.
 Running external command "python3 -u ../../src/gamesp.py R"
         input file       "/home/jh-li/scratch/g16/Gau-383947.EIn"
         output file      "/home/jh-li/scratch/g16/Gau-383947.EOu"
         message file     "/home/jh-li/scratch/g16/Gau-383947.EMs"
         fchk file        "/home/jh-li/scratch/g16/Gau-383947.EFC"
         mat. el file     "/home/jh-li/scratch/g16/Gau-383947.EUF"
>>> Running Amesp...
>>> Parsing Amesp output...
>>> 大师大法好！
 Recovered energy= -132.653763869     dipole=      0.047000000000      0.119900000000      2.564300000000
 NRF= 0 NRA=   0 NVA=   0 HaveQM=F NVQ=       0
 Convergence limit is  0.750E-04 MaxStp= 10000 StMxLn= 3.00D-04 StpMin= 1.00D-06.
 Convergence criteria             0.00011250 0.00007500 0.00045000 0.00030000
  Step  NS  ND Rises OKQ   Scale  Max. Force  RMS Force Max. Disp.  RMS Disp.     Energy   Flag
     1   0   0   F    T  1.00D+00 0.00000000 0.00000000 0.00000000 0.00000000 -132.6537639 ====
 Running external command "python3 -u ../../src/gamesp.py R"
         input file       "/home/jh-li/scratch/g16/Gau-383947.EIn"
         output file      "/home/jh-li/scratch/g16/Gau-383947.EOu"
         message file     "/home/jh-li/scratch/g16/Gau-383947.EMs"
         fchk file        "/home/jh-li/scratch/g16/Gau-383947.EFC"
         mat. el file     "/home/jh-li/scratch/g16/Gau-383947.EUF"
>>> Running Amesp...
>>> Parsing Amesp output...
>>> 大师大法好！
 Recovered energy= -132.653763869     dipole=      0.047000000000      0.119900000000      2.564300000000
 Energy=    -132.653764     NIter=   0.
 Dipole moment=       0.047000       0.119900       2.564300
 Leave Link  402 at Thu Oct 12 11:57:56 2023, MaxMem=   104857600 cpu:               0.0 elap:               3.2
 (Enter /opt/g16/l716.exe)
 Dipole        = 4.70000000D-02 1.19900000D-01 2.56430000D+00
 -------------------------------------------------------------------
 Center     Atomic                   Forces (Hartrees/Bohr)
 Number     Number              X              Y              Z
 -------------------------------------------------------------------
      1        6          -0.005687256    0.002896569    0.001732029
      2        1          -0.000250810    0.000102905    0.000448717
      3        1          -0.000216435    0.000176050    0.000444112
      4        1          -0.000254855    0.000108176   -0.000336960
      5        7           0.001951951   -0.001597295   -0.010774243
      6        6           0.004457404   -0.001686405    0.008486345
 -------------------------------------------------------------------
 Cartesian Forces:  Max     0.010774243 RMS     0.003812634
 Leave Link  716 at Thu Oct 12 11:57:56 2023, MaxMem=   104857600 cpu:               0.0 elap:               0.0
 (Enter /opt/g16/l123.exe)
 IRC-IRC-IRC-IRC-IRC-IRC-IRC-IRC-IRC-IRC-IRC-IRC-IRC-IRC-IRC-IRC-IRC-IRC
 Error in corrector energy =          -0.0000003428
 Magnitude of corrector gradient =     0.0158560906
 Magnitude of analytic gradient =      0.0161756379
 Magnitude of difference =             0.0004863440
 Angle between gradients (degrees)=    1.3117
 Pt  2 Step number   2 out of a maximum of  10
 Using modified Bulirsch-Stoer corrector integration.
   Using distance weighted interpolants to fit PES.
 PreDWI: IReCr0= 2 IReCr1= 1 IReCr2= 1 IReCr3= 1
 Modified Bulirsch-Stoer Extrapolation Cycles:
    EPS =    0.000010000000000
    Cycle     1 NS=    48
      PEZero:  N= 2 I= 1 D=  1.47D-03 Err=  3.20D-05
    Cycle     2 NS=    64 Truncation Error =  0.000031963
      PEZero:  N= 3 I= 2 D=  1.47D-03 Err=  2.12D-05
      PEZero:  N= 3 I= 1 D=  2.94D-03 Err=  2.07D-07
    Cycle     3 NS=    96 Truncation Error =  0.000000207
 BS completed in    3 cycles and     208 integration steps.
 Maximum DWI energy   std dev =  0.000006654 at pt    69
 Maximum DWI gradient std dev =  0.148724768 at pt    55
 SUMMARY OF CORRECTOR INTEGRATION:
   Predictor End Point Energy =  -132.653752
   Old End Point Energy       =  -132.653764
   Corrected End Point Energy =  -132.653764
   Predictor End-Start Dist.  =     0.281906
   Old End-Start Dist.        =     0.281764
   New End-Start Dist.        =     0.281768
   New End-Old End Dist.      =     0.003049
 CORRECTOR INTEGRATION CONVERGENCE:
   Recorrection delta-x convergence threshold:    0.010000
   Delta-x Convergence Met
 Point Number:   2          Path Number:   1
                    CURRENT STRUCTURE
                Cartesian Coordinates (Ang):                
 ---------------------------------------------------------------------
 Center     Atomic                     Coordinates (Angstroms)
 Number     Number                        X           Y           Z
 ---------------------------------------------------------------------
      1          6                   -0.043646    0.080297    1.064882
      2          1                   -0.065523    1.118823    1.386187
      3          1                   -0.856198   -0.512119    1.478548
      4          1                    0.916839   -0.371134    1.316390
      5          7                    0.512438   -0.286490   -0.714299
      6          6                   -0.554071    0.234307   -0.582427
 ---------------------------------------------------------------------
   CHANGE IN THE REACTION COORDINATE =    0.28177
   NET REACTION COORDINATE UP TO THIS POINT =    0.56352
  # OF POINTS ALONG THE PATH =   2
  # OF STEPS =   2

 Calculating another point on the path.
 Point Number  3 in FORWARD path direction.
 Using LQA Reaction Path Following.
   LQA: T_Est iteration completed in    3 iterations.
 IRC-IRC-IRC-IRC-IRC-IRC-IRC-IRC-IRC-IRC-IRC-IRC-IRC-IRC-IRC-IRC-IRC-IRC
 Leave Link  123 at Thu Oct 12 11:57:56 2023, MaxMem=   104857600 cpu:               0.0 elap:               0.0
 (Enter /opt/g16/l202.exe)
                          Input orientation:                          
 ---------------------------------------------------------------------
 Center     Atomic      Atomic             Coordinates (Angstroms)
 Number     Number       Type             X           Y           Z
 ---------------------------------------------------------------------
      1          6           0       -0.058816    0.087962    1.069601
      2          1           0       -0.074368    1.123178    1.403256
      3          1           0       -0.864232   -0.506119    1.495744
      4          1           0        0.905972   -0.366558    1.301214
      5          7           0        0.517095   -0.290221   -0.739184
      6          6           0       -0.542025    0.229753   -0.559697
 ---------------------------------------------------------------------
                    Distance matrix (angstroms):
                    1          2          3          4          5
     1  C    0.000000
     2  H    1.087768   0.000000
     3  H    1.087762   1.813022   0.000000
     4  H    1.091352   1.786279   1.786321   0.000000
     5  N    1.935562   2.633927   2.636205   2.078527   0.000000
     6  C    1.705347   2.206829   2.206844   2.432133   1.193451
                    6
     6  C    0.000000
 Symmetry turned off by external request.
 Stoichiometry    C2H3N
 Framework group  C1[X(C2H3N)]
 Deg. of freedom    12
 Full point group                 C1      NOp   1
 Rotational constants (GHZ):          43.0329178          15.1019779          12.0627986
 Leave Link  202 at Thu Oct 12 11:57:56 2023, MaxMem=   104857600 cpu:               0.0 elap:               0.0
 (Enter /opt/g16/l301.exe)
 Standard basis: STO-3G (5D, 7F)
 Ernie: Thresh=  0.10000D-02 Tol=  0.10000D-05 Strict=F.
    18 basis functions,    54 primitive gaussians,    18 cartesian basis functions
    11 alpha electrons       11 beta electrons
       nuclear repulsion energy        59.6845157595 Hartrees.
 IExCor=    0 DFT=F Ex=HF Corr=None ExCW=0 ScaHFX=  1.000000
 ScaDFX=  1.000000  1.000000  1.000000  1.000000 ScalE2=  1.000000  1.000000
 IRadAn=      5 IRanWt=     -1 IRanGd=            0 ICorTp=0 IEmpDi=  4
 NAtoms=    6 NActive=    6 NUniq=    6 SFac= 1.00D+00 NAtFMM=   60 NAOKFM=F Big=F
 Integral buffers will be    131072 words long.
 Raffenetti 1 integral format.
 Two-electron integral symmetry is turned off.
 Leave Link  301 at Thu Oct 12 11:57:56 2023, MaxMem=   104857600 cpu:               0.1 elap:               0.1
 (Enter /opt/g16/l402.exe)
 External calculation of energy and first derivatives.
 Running external command "python3 -u ../../src/gamesp.py R"
         input file       "/home/jh-li/scratch/g16/Gau-383947.EIn"
         output file      "/home/jh-li/scratch/g16/Gau-383947.EOu"
         message file     "/home/jh-li/scratch/g16/Gau-383947.EMs"
         fchk file        "/home/jh-li/scratch/g16/Gau-383947.EFC"
         mat. el file     "/home/jh-li/scratch/g16/Gau-383947.EUF"
>>> Running Amesp...
>>> Parsing Amesp output...
>>> 大师大法好！
 Recovered energy= -132.655392633     dipole=     -0.023600000000      0.151000000000      2.505700000000
 NRF= 0 NRA=   0 NVA=   0 HaveQM=F NVQ=       0
 Convergence limit is  0.750E-04 MaxStp= 10000 StMxLn= 3.00D-04 StpMin= 1.00D-06.
 Convergence criteria             0.00011250 0.00007500 0.00045000 0.00030000
  Step  NS  ND Rises OKQ   Scale  Max. Force  RMS Force Max. Disp.  RMS Disp.     Energy   Flag
     1   0   0   F    T  1.00D+00 0.00000000 0.00000000 0.00000000 0.00000000 -132.6553926 ====
 Running external command "python3 -u ../../src/gamesp.py R"
         input file       "/home/jh-li/scratch/g16/Gau-383947.EIn"
         output file      "/home/jh-li/scratch/g16/Gau-383947.EOu"
         message file     "/home/jh-li/scratch/g16/Gau-383947.EMs"
         fchk file        "/home/jh-li/scratch/g16/Gau-383947.EFC"
         mat. el file     "/home/jh-li/scratch/g16/Gau-383947.EUF"
>>> Running Amesp...
>>> Parsing Amesp output...
>>> 大师大法好！
 Recovered energy= -132.655392633     dipole=     -0.023600000000      0.151000000000      2.505700000000
 Energy=    -132.655393     NIter=   0.
 Dipole moment=      -0.023600       0.151000       2.505700
 Leave Link  402 at Thu Oct 12 11:58:00 2023, MaxMem=   104857600 cpu:               0.0 elap:               3.3
 (Enter /opt/g16/l716.exe)
 Dipole        =-2.36000000D-02 1.51000000D-01 2.50570000D+00
 -------------------------------------------------------------------
 Center     Atomic                   Forces (Hartrees/Bohr)
 Number     Number              X              Y              Z
 -------------------------------------------------------------------
      1        6          -0.008112573    0.004117422    0.002874397
      2        1          -0.000429243    0.000069098    0.000805184
      3        1          -0.000289437    0.000353937    0.000793864
      4        1          -0.000799225    0.000386164   -0.000210854
      5        7          -0.001250902   -0.000346429   -0.016115244
      6        6           0.010881381   -0.004580193    0.011852653
 -------------------------------------------------------------------
 Cartesian Forces:  Max     0.016115244 RMS     0.005938537
 Leave Link  716 at Thu Oct 12 11:58:00 2023, MaxMem=   104857600 cpu:               0.0 elap:               0.0
 (Enter /opt/g16/l123.exe)
 IRC-IRC-IRC-IRC-IRC-IRC-IRC-IRC-IRC-IRC-IRC-IRC-IRC-IRC-IRC-IRC-IRC-IRC
 Pt  3 Step number   1 out of a maximum of  10
 Using modified Bulirsch-Stoer corrector integration.
   Using distance weighted interpolants to fit PES.
 PreDWI: IReCr0= 2 IReCr1= 1 IReCr2= 1 IReCr3= 1
 Modified Bulirsch-Stoer Extrapolation Cycles:
    EPS =    0.000010000000000
    Cycle     1 NS=    48
      PEZero:  N= 2 I= 1 D=  1.47D-03 Err=  3.94D-05
    Cycle     2 NS=    64 Truncation Error =  0.000039378
      PEZero:  N= 3 I= 2 D=  1.47D-03 Err=  2.62D-05
      PEZero:  N= 3 I= 1 D=  2.94D-03 Err=  3.05D-07
    Cycle     3 NS=    96 Truncation Error =  0.000000305
 BS completed in    3 cycles and     208 integration steps.
 Maximum DWI energy   std dev =  0.000003842 at pt    68
 Maximum DWI gradient std dev =  0.090488071 at pt    56
 SUMMARY OF CORRECTOR INTEGRATION:
   Predictor End Point Energy =  -132.655393
   Old End Point Energy       =  -132.655393
   Corrected End Point Energy =  -132.655404
   Predictor End-Start Dist.  =     0.281922
   Old End-Start Dist.        =     0.281922
   New End-Start Dist.        =     0.281802
   New End-Old End Dist.      =     0.011359
 CORRECTOR INTEGRATION CONVERGENCE:
   Recorrection delta-x convergence threshold:    0.010000
   Delta-x Convergence NOT Met
 IRC-IRC-IRC-IRC-IRC-IRC-IRC-IRC-IRC-IRC-IRC-IRC-IRC-IRC-IRC-IRC-IRC-IRC
 Leave Link  123 at Thu Oct 12 11:58:00 2023, MaxMem=   104857600 cpu:               0.0 elap:               0.0
 (Enter /opt/g16/l202.exe)
                          Input orientation:                          
 ---------------------------------------------------------------------
 Center     Atomic      Atomic             Coordinates (Angstroms)
 Number     Number       Type             X           Y           Z
 ---------------------------------------------------------------------
      1          6           0       -0.058823    0.087976    1.069813
      2          1           0       -0.075097    1.123037    1.403720
      3          1           0       -0.864539   -0.505508    1.496125
      4          1           0        0.905037   -0.365938    1.303585
      5          7           0        0.516277   -0.289818   -0.739130
      6          6           0       -0.541080    0.229277   -0.560120
 ---------------------------------------------------------------------
                    Distance matrix (angstroms):
                    1          2          3          4          5
     1  C    0.000000
     2  H    1.087709   0.000000
     3  H    1.087723   1.812158   0.000000
     4  H    1.090740   1.785424   1.785483   0.000000
     5  N    1.935393   2.633950   2.636199   2.080772   0.000000
     6  C    1.705643   2.207400   2.207414   2.432885   1.191431
                    6
     6  C    0.000000
 Symmetry turned off by external request.
 Stoichiometry    C2H3N
 Framework group  C1[X(C2H3N)]
 Deg. of freedom    12
 Full point group                 C1      NOp   1
 Rotational constants (GHZ):          43.1416615          15.0955273          12.0662967
 Leave Link  202 at Thu Oct 12 11:58:00 2023, MaxMem=   104857600 cpu:               0.0 elap:               0.0
 (Enter /opt/g16/l301.exe)
 Standard basis: STO-3G (5D, 7F)
 Ernie: Thresh=  0.10000D-02 Tol=  0.10000D-05 Strict=F.
    18 basis functions,    54 primitive gaussians,    18 cartesian basis functions
    11 alpha electrons       11 beta electrons
       nuclear repulsion energy        59.7143681802 Hartrees.
 IExCor=    0 DFT=F Ex=HF Corr=None ExCW=0 ScaHFX=  1.000000
 ScaDFX=  1.000000  1.000000  1.000000  1.000000 ScalE2=  1.000000  1.000000
 IRadAn=      5 IRanWt=     -1 IRanGd=            0 ICorTp=0 IEmpDi=  4
 NAtoms=    6 NActive=    6 NUniq=    6 SFac= 1.00D+00 NAtFMM=   60 NAOKFM=F Big=F
 Integral buffers will be    131072 words long.
 Raffenetti 1 integral format.
 Two-electron integral symmetry is turned off.
 Leave Link  301 at Thu Oct 12 11:58:00 2023, MaxMem=   104857600 cpu:               0.1 elap:               0.0
 (Enter /opt/g16/l402.exe)
 External calculation of energy and first derivatives.
 Running external command "python3 -u ../../src/gamesp.py R"
         input file       "/home/jh-li/scratch/g16/Gau-383947.EIn"
         output file      "/home/jh-li/scratch/g16/Gau-383947.EOu"
         message file     "/home/jh-li/scratch/g16/Gau-383947.EMs"
         fchk file        "/home/jh-li/scratch/g16/Gau-383947.EFC"
         mat. el file     "/home/jh-li/scratch/g16/Gau-383947.EUF"
>>> Running Amesp...
>>> Parsing Amesp output...
>>> 大师大法好！
 Recovered energy= -132.655403167     dipole=     -0.024400000000      0.151500000000      2.508200000000
 NRF= 0 NRA=   0 NVA=   0 HaveQM=F NVQ=       0
 Convergence limit is  0.750E-04 MaxStp= 10000 StMxLn= 3.00D-04 StpMin= 1.00D-06.
 Convergence criteria             0.00011250 0.00007500 0.00045000 0.00030000
  Step  NS  ND Rises OKQ   Scale  Max. Force  RMS Force Max. Disp.  RMS Disp.     Energy   Flag
     1   0   0   F    T  1.00D+00 0.00000000 0.00000000 0.00000000 0.00000000 -132.6554032 ====
 Running external command "python3 -u ../../src/gamesp.py R"
         input file       "/home/jh-li/scratch/g16/Gau-383947.EIn"
         output file      "/home/jh-li/scratch/g16/Gau-383947.EOu"
         message file     "/home/jh-li/scratch/g16/Gau-383947.EMs"
         fchk file        "/home/jh-li/scratch/g16/Gau-383947.EFC"
         mat. el file     "/home/jh-li/scratch/g16/Gau-383947.EUF"
>>> Running Amesp...
>>> Parsing Amesp output...
>>> 大师大法好！
 Recovered energy= -132.655403167     dipole=     -0.024400000000      0.151500000000      2.508200000000
 Energy=    -132.655403     NIter=   0.
 Dipole moment=      -0.024400       0.151500       2.508200
 Leave Link  402 at Thu Oct 12 11:58:03 2023, MaxMem=   104857600 cpu:               0.0 elap:               3.2
 (Enter /opt/g16/l716.exe)
 Dipole        =-2.44000000D-02 1.51500000D-01 2.50820000D+00
 -------------------------------------------------------------------
 Center     Atomic                   Forces (Hartrees/Bohr)
 Number     Number              X              Y              Z
 -------------------------------------------------------------------
      1        6          -0.008607631    0.004351351    0.002994119
      2        1          -0.000426054    0.000152637    0.000730900
      3        1          -0.000344680    0.000300454    0.000724510
      4        1          -0.000425183    0.000193824   -0.000370420
      5        7           0.002266948   -0.002075523   -0.016771373
      6        6           0.007536600   -0.002922743    0.012692264
 -------------------------------------------------------------------
 Cartesian Forces:  Max     0.016771373 RMS     0.005873580
 Leave Link  716 at Thu Oct 12 11:58:03 2023, MaxMem=   104857600 cpu:               0.0 elap:               0.0
 (Enter /opt/g16/l123.exe)
 IRC-IRC-IRC-IRC-IRC-IRC-IRC-IRC-IRC-IRC-IRC-IRC-IRC-IRC-IRC-IRC-IRC-IRC
 Error in corrector energy =          -0.0000003363
 Magnitude of corrector gradient =     0.0245360543
 Magnitude of analytic gradient =      0.0249194912
 Magnitude of difference =             0.0006460299
 Angle between gradients (degrees)=    1.2048
 Pt  3 Step number   2 out of a maximum of  10
 Using modified Bulirsch-Stoer corrector integration.
   Using distance weighted interpolants to fit PES.
 PreDWI: IReCr0= 2 IReCr1= 1 IReCr2= 1 IReCr3= 1
 Modified Bulirsch-Stoer Extrapolation Cycles:
    EPS =    0.000010000000000
    Cycle     1 NS=    48
      PEZero:  N= 2 I= 1 D=  1.47D-03 Err=  2.98D-05
    Cycle     2 NS=    64 Truncation Error =  0.000029829
      PEZero:  N= 3 I= 2 D=  1.47D-03 Err=  1.98D-05
      PEZero:  N= 3 I= 1 D=  2.94D-03 Err=  3.10D-07
    Cycle     3 NS=    96 Truncation Error =  0.000000310
 BS completed in    3 cycles and     208 integration steps.
 Maximum DWI energy   std dev =  0.000003126 at pt    73
 Maximum DWI gradient std dev =  0.089338595 at pt    28
 SUMMARY OF CORRECTOR INTEGRATION:
   Predictor End Point Energy =  -132.655393
   Old End Point Energy       =  -132.655403
   Corrected End Point Energy =  -132.655404
   Predictor End-Start Dist.  =     0.281922
   Old End-Start Dist.        =     0.281802
   New End-Start Dist.        =     0.281814
   New End-Old End Dist.      =     0.003175
 CORRECTOR INTEGRATION CONVERGENCE:
   Recorrection delta-x convergence threshold:    0.010000
   Delta-x Convergence Met
 Point Number:   3          Path Number:   1
                    CURRENT STRUCTURE
                Cartesian Coordinates (Ang):                
 ---------------------------------------------------------------------
 Center     Atomic                     Coordinates (Angstroms)
 Number     Number                        X           Y           Z
 ---------------------------------------------------------------------
      1          6                   -0.058647    0.087885    1.069757
      2          1                   -0.074758    1.123012    1.403071
      3          1                   -0.864337   -0.505850    1.495449
      4          1                    0.905350   -0.366075    1.304083
      5          7                    0.516272   -0.289823   -0.739278
      6          6                   -0.541154    0.229324   -0.559940
 ---------------------------------------------------------------------
   CHANGE IN THE REACTION COORDINATE =    0.28181
   NET REACTION COORDINATE UP TO THIS POINT =    0.84533
  # OF POINTS ALONG THE PATH =   3
  # OF STEPS =   2

 Calculating another point on the path.
 Point Number  4 in FORWARD path direction.
 Using LQA Reaction Path Following.
   LQA: T_Est iteration completed in    3 iterations.
 IRC-IRC-IRC-IRC-IRC-IRC-IRC-IRC-IRC-IRC-IRC-IRC-IRC-IRC-IRC-IRC-IRC-IRC
 Leave Link  123 at Thu Oct 12 11:58:03 2023, MaxMem=   104857600 cpu:               0.0 elap:               0.0
 (Enter /opt/g16/l202.exe)
                          Input orientation:                          
 ---------------------------------------------------------------------
 Center     Atomic      Atomic             Coordinates (Angstroms)
 Number     Number       Type             X           Y           Z
 ---------------------------------------------------------------------
      1          6           0       -0.073459    0.095361    1.075126
      2          1           0       -0.084669    1.127040    1.421011
      3          1           0       -0.872686   -0.499031    1.513371
      4          1           0        0.893630   -0.360813    1.292685
      5          7           0        0.519878   -0.293032   -0.764505
      6          6           0       -0.528042    0.224246   -0.537917
 ---------------------------------------------------------------------
                    Distance matrix (angstroms):
                    1          2          3          4          5
     1  C    0.000000
     2  H    1.088174   0.000000
     3  H    1.088176   1.809312   0.000000
     4  H    1.091186   1.785285   1.785407   0.000000
     5  N    1.971583   2.675549   2.677758   2.091965   0.000000
     6  C    1.680823   2.202048   2.202202   2.390513   1.190401
                    6
     6  C    0.000000
 Symmetry turned off by external request.
 Stoichiometry    C2H3N
 Framework group  C1[X(C2H3N)]
 Deg. of freedom    12
 Full point group                 C1      NOp   1
 Rotational constants (GHZ):          44.5074662          14.7764280          11.9595364
 Leave Link  202 at Thu Oct 12 11:58:03 2023, MaxMem=   104857600 cpu:               0.0 elap:               0.0
 (Enter /opt/g16/l301.exe)
 Standard basis: STO-3G (5D, 7F)
 Ernie: Thresh=  0.10000D-02 Tol=  0.10000D-05 Strict=F.
    18 basis functions,    54 primitive gaussians,    18 cartesian basis functions
    11 alpha electrons       11 beta electrons
       nuclear repulsion energy        59.6583279276 Hartrees.
 IExCor=    0 DFT=F Ex=HF Corr=None ExCW=0 ScaHFX=  1.000000
 ScaDFX=  1.000000  1.000000  1.000000  1.000000 ScalE2=  1.000000  1.000000
 IRadAn=      5 IRanWt=     -1 IRanGd=            0 ICorTp=0 IEmpDi=  4
 NAtoms=    6 NActive=    6 NUniq=    6 SFac= 1.00D+00 NAtFMM=   60 NAOKFM=F Big=F
 Integral buffers will be    131072 words long.
 Raffenetti 1 integral format.
 Two-electron integral symmetry is turned off.
 Leave Link  301 at Thu Oct 12 11:58:03 2023, MaxMem=   104857600 cpu:               0.0 elap:               0.0
 (Enter /opt/g16/l402.exe)
 External calculation of energy and first derivatives.
 Running external command "python3 -u ../../src/gamesp.py R"
         input file       "/home/jh-li/scratch/g16/Gau-383947.EIn"
         output file      "/home/jh-li/scratch/g16/Gau-383947.EOu"
         message file     "/home/jh-li/scratch/g16/Gau-383947.EMs"
         fchk file        "/home/jh-li/scratch/g16/Gau-383947.EFC"
         mat. el file     "/home/jh-li/scratch/g16/Gau-383947.EUF"
>>> Running Amesp...
>>> Parsing Amesp output...
>>> 大师大法好！
 Recovered energy= -132.657736676     dipole=     -0.106300000000      0.187800000000      2.446500000000
 NRF= 0 NRA=   0 NVA=   0 HaveQM=F NVQ=       0
 Convergence limit is  0.750E-04 MaxStp= 10000 StMxLn= 3.00D-04 StpMin= 1.00D-06.
 Convergence criteria             0.00011250 0.00007500 0.00045000 0.00030000
  Step  NS  ND Rises OKQ   Scale  Max. Force  RMS Force Max. Disp.  RMS Disp.     Energy   Flag
     1   0   0   F    T  1.00D+00 0.00000000 0.00000000 0.00000000 0.00000000 -132.6577367 ====
 Running external command "python3 -u ../../src/gamesp.py R"
         input file       "/home/jh-li/scratch/g16/Gau-383947.EIn"
         output file      "/home/jh-li/scratch/g16/Gau-383947.EOu"
         message file     "/home/jh-li/scratch/g16/Gau-383947.EMs"
         fchk file        "/home/jh-li/scratch/g16/Gau-383947.EFC"
         mat. el file     "/home/jh-li/scratch/g16/Gau-383947.EUF"
>>> Running Amesp...
>>> Parsing Amesp output...
>>> 大师大法好！
 Recovered energy= -132.657736676     dipole=     -0.106300000000      0.187800000000      2.446500000000
 Energy=    -132.657737     NIter=   0.
 Dipole moment=      -0.106300       0.187800       2.446500
 Leave Link  402 at Thu Oct 12 11:58:06 2023, MaxMem=   104857600 cpu:               0.0 elap:               3.2
 (Enter /opt/g16/l716.exe)
 Dipole        =-1.06300000D-01 1.87800000D-01 2.44650000D+00
 -------------------------------------------------------------------
 Center     Atomic                   Forces (Hartrees/Bohr)
 Number     Number              X              Y              Z
 -------------------------------------------------------------------
      1        6          -0.011045085    0.005592117    0.004364938
      2        1          -0.000624437    0.000127187    0.001007549
      3        1          -0.000432697    0.000487280    0.000987830
      4        1          -0.000868492    0.000424835   -0.000117017
      5        7          -0.000914287   -0.000834876   -0.022099416
      6        6           0.013884998   -0.005796543    0.015856116
 -------------------------------------------------------------------
 Cartesian Forces:  Max     0.022099416 RMS     0.007971530
 Leave Link  716 at Thu Oct 12 11:58:06 2023, MaxMem=   104857600 cpu:               0.0 elap:               0.0
 (Enter /opt/g16/l123.exe)
 IRC-IRC-IRC-IRC-IRC-IRC-IRC-IRC-IRC-IRC-IRC-IRC-IRC-IRC-IRC-IRC-IRC-IRC
 Pt  4 Step number   1 out of a maximum of  10
 Using modified Bulirsch-Stoer corrector integration.
   Using distance weighted interpolants to fit PES.
 PreDWI: IReCr0= 2 IReCr1= 1 IReCr2= 1 IReCr3= 1
 Modified Bulirsch-Stoer Extrapolation Cycles:
    EPS =    0.000010000000000
    Cycle     1 NS=    48
      PEZero:  N= 2 I= 1 D=  1.47D-03 Err=  3.63D-05
    Cycle     2 NS=    64 Truncation Error =  0.000036308
      PEZero:  N= 3 I= 2 D=  1.47D-03 Err=  2.42D-05
      PEZero:  N= 3 I= 1 D=  2.94D-03 Err=  2.02D-07
    Cycle     3 NS=    96 Truncation Error =  0.000000202
 BS completed in    3 cycles and     208 integration steps.
 Maximum DWI energy   std dev =  0.000002502 at pt    59
 Maximum DWI gradient std dev =  0.061894177 at pt    56
 SUMMARY OF CORRECTOR INTEGRATION:
   Predictor End Point Energy =  -132.657737
   Old End Point Energy       =  -132.657737
   Corrected End Point Energy =  -132.657746
   Predictor End-Start Dist.  =     0.281927
   Old End-Start Dist.        =     0.281927
   New End-Start Dist.        =     0.281837
   New End-Old End Dist.      =     0.009691
 CORRECTOR INTEGRATION CONVERGENCE:
   Recorrection delta-x convergence threshold:    0.010000
   Delta-x Convergence Met
 Point Number:   4          Path Number:   1
                    CURRENT STRUCTURE
                Cartesian Coordinates (Ang):                
 ---------------------------------------------------------------------
 Center     Atomic                     Coordinates (Angstroms)
 Number     Number                        X           Y           Z
 ---------------------------------------------------------------------
      1          6                   -0.073495    0.095387    1.075259
      2          1                   -0.085256    1.127026    1.420882
      3          1                   -0.873041   -0.498599    1.513190
      4          1                    0.892916   -0.360349    1.294943
      5          7                    0.519182   -0.292682   -0.764374
      6          6                   -0.527244    0.223840   -0.538227
 ---------------------------------------------------------------------
   CHANGE IN THE REACTION COORDINATE =    0.28184
   NET REACTION COORDINATE UP TO THIS POINT =    1.12717
  # OF POINTS ALONG THE PATH =   4
  # OF STEPS =   1

 Calculating another point on the path.
 Point Number  5 in FORWARD path direction.
 Using LQA Reaction Path Following.
   LQA: T_Est iteration completed in    3 iterations.
 IRC-IRC-IRC-IRC-IRC-IRC-IRC-IRC-IRC-IRC-IRC-IRC-IRC-IRC-IRC-IRC-IRC-IRC
 Leave Link  123 at Thu Oct 12 11:58:06 2023, MaxMem=   104857600 cpu:               0.0 elap:               0.0
 (Enter /opt/g16/l202.exe)
                          Input orientation:                          
 ---------------------------------------------------------------------
 Center     Atomic      Atomic             Coordinates (Angstroms)
 Number     Number       Type             X           Y           Z
 ---------------------------------------------------------------------
      1          6           0       -0.088327    0.102896    1.081317
      2          1           0       -0.096646    1.131011    1.439546
      3          1           0       -0.882238   -0.490586    1.531751
      4          1           0        0.880131   -0.354377    1.287267
      5          7           0        0.521851   -0.295417   -0.789572
      6          6           0       -0.513080    0.218208   -0.517087
 ---------------------------------------------------------------------
                    Distance matrix (angstroms):
                    1          2          3          4          5
     1  C    0.000000
     2  H    1.088769   0.000000
     3  H    1.088765   1.804227   0.000000
     4  H    1.090607   1.784282   1.784453   0.000000
     5  N    2.007784   2.717757   2.719945   2.108341   0.000000
     6  C    1.657892   2.198872   2.199183   2.350443   1.187073
                    6
     6  C    0.000000
 Symmetry turned off by external request.
 Stoichiometry    C2H3N
 Framework group  C1[X(C2H3N)]
 Deg. of freedom    12
 Full point group                 C1      NOp   1
 Rotational constants (GHZ):          46.2750243          14.4265938          11.8434599
 Leave Link  202 at Thu Oct 12 11:58:06 2023, MaxMem=   104857600 cpu:               0.0 elap:               0.0
 (Enter /opt/g16/l301.exe)
 Standard basis: STO-3G (5D, 7F)
 Ernie: Thresh=  0.10000D-02 Tol=  0.10000D-05 Strict=F.
    18 basis functions,    54 primitive gaussians,    18 cartesian basis functions
    11 alpha electrons       11 beta electrons
       nuclear repulsion energy        59.6337040065 Hartrees.
 IExCor=    0 DFT=F Ex=HF Corr=None ExCW=0 ScaHFX=  1.000000
 ScaDFX=  1.000000  1.000000  1.000000  1.000000 ScalE2=  1.000000  1.000000
 IRadAn=      5 IRanWt=     -1 IRanGd=            0 ICorTp=0 IEmpDi=  4
 NAtoms=    6 NActive=    6 NUniq=    6 SFac= 1.00D+00 NAtFMM=   60 NAOKFM=F Big=F
 Integral buffers will be    131072 words long.
 Raffenetti 1 integral format.
 Two-electron integral symmetry is turned off.
 Leave Link  301 at Thu Oct 12 11:58:06 2023, MaxMem=   104857600 cpu:               0.0 elap:               0.0
 (Enter /opt/g16/l402.exe)
 External calculation of energy and first derivatives.
 Running external command "python3 -u ../../src/gamesp.py R"
         input file       "/home/jh-li/scratch/g16/Gau-383947.EIn"
         output file      "/home/jh-li/scratch/g16/Gau-383947.EOu"
         message file     "/home/jh-li/scratch/g16/Gau-383947.EMs"
         fchk file        "/home/jh-li/scratch/g16/Gau-383947.EFC"
         mat. el file     "/home/jh-li/scratch/g16/Gau-383947.EUF"
>>> Running Amesp...
>>> Parsing Amesp output...
>>> 大师大法好！
 Recovered energy= -132.660771884     dipole=     -0.197900000000      0.228900000000      2.390300000000
 NRF= 0 NRA=   0 NVA=   0 HaveQM=F NVQ=       0
 Convergence limit is  0.750E-04 MaxStp= 10000 StMxLn= 3.00D-04 StpMin= 1.00D-06.
 Convergence criteria             0.00011250 0.00007500 0.00045000 0.00030000
  Step  NS  ND Rises OKQ   Scale  Max. Force  RMS Force Max. Disp.  RMS Disp.     Energy   Flag
     1   0   0   F    T  1.00D+00 0.00000000 0.00000000 0.00000000 0.00000000 -132.6607719 ====
 Running external command "python3 -u ../../src/gamesp.py R"
         input file       "/home/jh-li/scratch/g16/Gau-383947.EIn"
         output file      "/home/jh-li/scratch/g16/Gau-383947.EOu"
         message file     "/home/jh-li/scratch/g16/Gau-383947.EMs"
         fchk file        "/home/jh-li/scratch/g16/Gau-383947.EFC"
         mat. el file     "/home/jh-li/scratch/g16/Gau-383947.EUF"
>>> Running Amesp...
>>> Parsing Amesp output...
>>> 大师大法好！
 Recovered energy= -132.660771884     dipole=     -0.197900000000      0.228900000000      2.390300000000
 Energy=    -132.660772     NIter=   0.
 Dipole moment=      -0.197900       0.228900       2.390300
 Leave Link  402 at Thu Oct 12 11:58:10 2023, MaxMem=   104857600 cpu:               0.0 elap:               3.3
 (Enter /opt/g16/l716.exe)
 Dipole        =-1.97900000D-01 2.28900000D-01 2.39030000D+00
 -------------------------------------------------------------------
 Center     Atomic                   Forces (Hartrees/Bohr)
 Number     Number              X              Y              Z
 -------------------------------------------------------------------
      1        6          -0.013941444    0.007080914    0.006017364
      2        1          -0.000781307    0.000152026    0.001015457
      3        1          -0.000547016    0.000587088    0.000987675
      4        1          -0.000839553    0.000427805    0.000199263
      5        7          -0.000531150   -0.001350379   -0.028121842
      6        6           0.016640470   -0.006897455    0.019902083
 -------------------------------------------------------------------
 Cartesian Forces:  Max     0.028121842 RMS     0.009995666
 Leave Link  716 at Thu Oct 12 11:58:10 2023, MaxMem=   104857600 cpu:               0.0 elap:               0.0
 (Enter /opt/g16/l123.exe)
 IRC-IRC-IRC-IRC-IRC-IRC-IRC-IRC-IRC-IRC-IRC-IRC-IRC-IRC-IRC-IRC-IRC-IRC
 Pt  5 Step number   1 out of a maximum of  10
 Using modified Bulirsch-Stoer corrector integration.
   Using distance weighted interpolants to fit PES.
 PreDWI: IReCr0= 2 IReCr1= 1 IReCr2= 1 IReCr3= 1
 Modified Bulirsch-Stoer Extrapolation Cycles:
    EPS =    0.000010000000000
    Cycle     1 NS=    48
      PEZero:  N= 2 I= 1 D=  1.47D-03 Err=  3.24D-05
    Cycle     2 NS=    64 Truncation Error =  0.000032443
      PEZero:  N= 3 I= 2 D=  1.47D-03 Err=  2.16D-05
      PEZero:  N= 3 I= 1 D=  2.94D-03 Err=  1.11D-07
    Cycle     3 NS=    96 Truncation Error =  0.000000111
 BS completed in    3 cycles and     208 integration steps.
 Maximum DWI energy   std dev =  0.000003594 at pt    40
 Maximum DWI gradient std dev =  0.045249387 at pt    28
 SUMMARY OF CORRECTOR INTEGRATION:
   Predictor End Point Energy =  -132.660772
   Old End Point Energy       =  -132.660772
   Corrected End Point Energy =  -132.660779
   Predictor End-Start Dist.  =     0.281933
   Old End-Start Dist.        =     0.281933
   New End-Start Dist.        =     0.281876
   New End-Old End Dist.      =     0.007878
 CORRECTOR INTEGRATION CONVERGENCE:
   Recorrection delta-x convergence threshold:    0.010000
   Delta-x Convergence Met
 Point Number:   5          Path Number:   1
                    CURRENT STRUCTURE
                Cartesian Coordinates (Ang):                
 ---------------------------------------------------------------------
 Center     Atomic                     Coordinates (Angstroms)
 Number     Number                        X           Y           Z
 ---------------------------------------------------------------------
      1          6                   -0.088276    0.102876    1.081358
      2          1                   -0.096766    1.131064    1.438403
      3          1                   -0.882398   -0.490662    1.530576
      4          1                    0.879919   -0.354158    1.289588
      5          7                    0.521334   -0.295160   -0.789522
      6          6                   -0.512543    0.217943   -0.517137
 ---------------------------------------------------------------------
   CHANGE IN THE REACTION COORDINATE =    0.28188
   NET REACTION COORDINATE UP TO THIS POINT =    1.40904
  # OF POINTS ALONG THE PATH =   5
  # OF STEPS =   1

 Calculating another point on the path.
 Point Number  6 in FORWARD path direction.
 Using LQA Reaction Path Following.
   LQA: T_Est iteration completed in    3 iterations.
 IRC-IRC-IRC-IRC-IRC-IRC-IRC-IRC-IRC-IRC-IRC-IRC-IRC-IRC-IRC-IRC-IRC-IRC
 Leave Link  123 at Thu Oct 12 11:58:10 2023, MaxMem=   104857600 cpu:               0.0 elap:               0.0
 (Enter /opt/g16/l202.exe)
                          Input orientation:                          
 ---------------------------------------------------------------------
 Center     Atomic      Atomic             Coordinates (Angstroms)
 Number     Number       Type             X           Y           Z
 ---------------------------------------------------------------------
      1          6           0       -0.102705    0.110204    1.087757
      2          1           0       -0.108801    1.135251    1.455190
      3          1           0       -0.892233   -0.482508    1.547181
      4          1           0        0.866784   -0.347802    1.286448
      5          7           0        0.523314   -0.297564   -0.814951
      6          6           0       -0.497788    0.212017   -0.496150
 ---------------------------------------------------------------------
                    Distance matrix (angstroms):
                    1          2          3          4          5
     1  C    0.000000
     2  H    1.088929   0.000000
     3  H    1.088913   1.799826   0.000000
     4  H    1.090485   1.783167   1.783331   0.000000
     5  N    2.044131   2.757910   2.760008   2.129877   0.000000
     6  C    1.635610   2.193491   2.193890   2.313679   1.184887
                    6
     6  C    0.000000
 Symmetry turned off by external request.
 Stoichiometry    C2H3N
 Framework group  C1[X(C2H3N)]
 Deg. of freedom    12
 Full point group                 C1      NOp   1
 Rotational constants (GHZ):          48.2611722          14.0716711          11.7198374
 Leave Link  202 at Thu Oct 12 11:58:10 2023, MaxMem=   104857600 cpu:               0.0 elap:               0.0
 (Enter /opt/g16/l301.exe)
 Standard basis: STO-3G (5D, 7F)
 Ernie: Thresh=  0.10000D-02 Tol=  0.10000D-05 Strict=F.
    18 basis functions,    54 primitive gaussians,    18 cartesian basis functions
    11 alpha electrons       11 beta electrons
       nuclear repulsion energy        59.5996608812 Hartrees.
 IExCor=    0 DFT=F Ex=HF Corr=None ExCW=0 ScaHFX=  1.000000
 ScaDFX=  1.000000  1.000000  1.000000  1.000000 ScalE2=  1.000000  1.000000
 IRadAn=      5 IRanWt=     -1 IRanGd=            0 ICorTp=0 IEmpDi=  4
 NAtoms=    6 NActive=    6 NUniq=    6 SFac= 1.00D+00 NAtFMM=   60 NAOKFM=F Big=F
 Integral buffers will be    131072 words long.
 Raffenetti 1 integral format.
 Two-electron integral symmetry is turned off.
 Leave Link  301 at Thu Oct 12 11:58:10 2023, MaxMem=   104857600 cpu:               0.0 elap:               0.0
 (Enter /opt/g16/l402.exe)
 External calculation of energy and first derivatives.
 Running external command "python3 -u ../../src/gamesp.py R"
         input file       "/home/jh-li/scratch/g16/Gau-383947.EIn"
         output file      "/home/jh-li/scratch/g16/Gau-383947.EOu"
         message file     "/home/jh-li/scratch/g16/Gau-383947.EMs"
         fchk file        "/home/jh-li/scratch/g16/Gau-383947.EFC"
         mat. el file     "/home/jh-li/scratch/g16/Gau-383947.EUF"
>>> Running Amesp...
>>> Parsing Amesp output...
>>> 大师大法好！
 Recovered energy= -132.664461849     dipole=     -0.292300000000      0.271800000000      2.342900000000
 NRF= 0 NRA=   0 NVA=   0 HaveQM=F NVQ=       0
 Convergence limit is  0.750E-04 MaxStp= 10000 StMxLn= 3.00D-04 StpMin= 1.00D-06.
 Convergence criteria             0.00011250 0.00007500 0.00045000 0.00030000
  Step  NS  ND Rises OKQ   Scale  Max. Force  RMS Force Max. Disp.  RMS Disp.     Energy   Flag
     1   0   0   F    T  1.00D+00 0.00000000 0.00000000 0.00000000 0.00000000 -132.6644618 ====
 Running external command "python3 -u ../../src/gamesp.py R"
         input file       "/home/jh-li/scratch/g16/Gau-383947.EIn"
         output file      "/home/jh-li/scratch/g16/Gau-383947.EOu"
         message file     "/home/jh-li/scratch/g16/Gau-383947.EMs"
         fchk file        "/home/jh-li/scratch/g16/Gau-383947.EFC"
         mat. el file     "/home/jh-li/scratch/g16/Gau-383947.EUF"
>>> Running Amesp...
>>> Parsing Amesp output...
>>> 大师大法好！
 Recovered energy= -132.664461849     dipole=     -0.292300000000      0.271800000000      2.342900000000
 Energy=    -132.664462     NIter=   0.
 Dipole moment=      -0.292300       0.271800       2.342900
 Leave Link  402 at Thu Oct 12 11:58:13 2023, MaxMem=   104857600 cpu:               0.0 elap:               3.4
 (Enter /opt/g16/l716.exe)
 Dipole        =-2.92300000D-01 2.71800000D-01 2.34290000D+00
 -------------------------------------------------------------------
 Center     Atomic                   Forces (Hartrees/Bohr)
 Number     Number              X              Y              Z
 -------------------------------------------------------------------
      1        6          -0.015913013    0.008112010    0.007486287
      2        1          -0.001068078    0.000362456    0.001325533
      3        1          -0.000881337    0.000704530    0.001302240
      4        1          -0.001090464    0.000563447    0.000405397
      5        7          -0.002306650   -0.000762126   -0.033017282
      6        6           0.021259542   -0.008980318    0.022497825
 -------------------------------------------------------------------
 Cartesian Forces:  Max     0.033017282 RMS     0.011826409
 Leave Link  716 at Thu Oct 12 11:58:13 2023, MaxMem=   104857600 cpu:               0.0 elap:               0.0
 (Enter /opt/g16/l123.exe)
 IRC-IRC-IRC-IRC-IRC-IRC-IRC-IRC-IRC-IRC-IRC-IRC-IRC-IRC-IRC-IRC-IRC-IRC
 Pt  6 Step number   1 out of a maximum of  10
 Using modified Bulirsch-Stoer corrector integration.
   Using distance weighted interpolants to fit PES.
 PreDWI: IReCr0= 2 IReCr1= 1 IReCr2= 1 IReCr3= 1
 Modified Bulirsch-Stoer Extrapolation Cycles:
    EPS =    0.000010000000000
    Cycle     1 NS=    48
      PEZero:  N= 2 I= 1 D=  1.47D-03 Err=  3.13D-05
    Cycle     2 NS=    64 Truncation Error =  0.000031326
      PEZero:  N= 3 I= 2 D=  1.47D-03 Err=  2.09D-05
      PEZero:  N= 3 I= 1 D=  2.94D-03 Err=  9.41D-08
    Cycle     3 NS=    96 Truncation Error =  0.000000094
 BS completed in    3 cycles and     208 integration steps.
 Maximum DWI energy   std dev =  0.000004538 at pt    35
 Maximum DWI gradient std dev =  0.046199265 at pt    38
 SUMMARY OF CORRECTOR INTEGRATION:
   Predictor End Point Energy =  -132.664462
   Old End Point Energy       =  -132.664462
   Corrected End Point Energy =  -132.664473
   Predictor End-Start Dist.  =     0.281936
   Old End-Start Dist.        =     0.281936
   New End-Start Dist.        =     0.281854
   New End-Old End Dist.      =     0.009007
 CORRECTOR INTEGRATION CONVERGENCE:
   Recorrection delta-x convergence threshold:    0.010000
   Delta-x Convergence Met
 Point Number:   6          Path Number:   1
                    CURRENT STRUCTURE
                Cartesian Coordinates (Ang):                
 ---------------------------------------------------------------------
 Center     Atomic                     Coordinates (Angstroms)
 Number     Number                        X           Y           Z
 ---------------------------------------------------------------------
      1          6                   -0.102635    0.110175    1.087840
      2          1                   -0.109052    1.135340    1.454946
      3          1                   -0.892479   -0.482402    1.546920
      4          1                    0.866585   -0.347618    1.288061
      5          7                    0.522599   -0.297207   -0.814787
      6          6                   -0.497015    0.211622   -0.496472
 ---------------------------------------------------------------------
   CHANGE IN THE REACTION COORDINATE =    0.28185
   NET REACTION COORDINATE UP TO THIS POINT =    1.69090
  # OF POINTS ALONG THE PATH =   6
  # OF STEPS =   1

 Calculating another point on the path.
 Point Number  7 in FORWARD path direction.
 Using LQA Reaction Path Following.
   LQA: T_Est iteration completed in    3 iterations.
 IRC-IRC-IRC-IRC-IRC-IRC-IRC-IRC-IRC-IRC-IRC-IRC-IRC-IRC-IRC-IRC-IRC-IRC
 Leave Link  123 at Thu Oct 12 11:58:13 2023, MaxMem=   104857600 cpu:               0.0 elap:               0.0
 (Enter /opt/g16/l202.exe)
                          Input orientation:                          
 ---------------------------------------------------------------------
 Center     Atomic      Atomic             Coordinates (Angstroms)
 Number     Number       Type             X           Y           Z
 ---------------------------------------------------------------------
      1          6           0       -0.116775    0.117390    1.094775
      2          1           0       -0.122465    1.139604    1.472199
      3          1           0       -0.903232   -0.473178    1.563916
      4          1           0        0.852907   -0.340820    1.288383
      5          7           0        0.523446   -0.299050   -0.840114
      6          6           0       -0.481092    0.205076   -0.476404
 ---------------------------------------------------------------------
                    Distance matrix (angstroms):
                    1          2          3          4          5
     1  C    0.000000
     2  H    1.089680   0.000000
     3  H    1.089669   1.794178   0.000000
     4  H    1.089828   1.782356   1.782544   0.000000
     5  N    2.080169   2.798878   2.800910   2.154249   0.000000
     6  C    1.615246   2.190664   2.191150   2.278603   1.181324
                    6
     6  C    0.000000
 Symmetry turned off by external request.
 Stoichiometry    C2H3N
 Framework group  C1[X(C2H3N)]
 Deg. of freedom    12
 Full point group                 C1      NOp   1
 Rotational constants (GHZ):          50.6064400          13.7073258          11.5882158
 Leave Link  202 at Thu Oct 12 11:58:13 2023, MaxMem=   104857600 cpu:               0.0 elap:               0.0
 (Enter /opt/g16/l301.exe)
 Standard basis: STO-3G (5D, 7F)
 Ernie: Thresh=  0.10000D-02 Tol=  0.10000D-05 Strict=F.
    18 basis functions,    54 primitive gaussians,    18 cartesian basis functions
    11 alpha electrons       11 beta electrons
       nuclear repulsion energy        59.5794943083 Hartrees.
 IExCor=    0 DFT=F Ex=HF Corr=None ExCW=0 ScaHFX=  1.000000
 ScaDFX=  1.000000  1.000000  1.000000  1.000000 ScalE2=  1.000000  1.000000
 IRadAn=      5 IRanWt=     -1 IRanGd=            0 ICorTp=0 IEmpDi=  4
 NAtoms=    6 NActive=    6 NUniq=    6 SFac= 1.00D+00 NAtFMM=   60 NAOKFM=F Big=F
 Integral buffers will be    131072 words long.
 Raffenetti 1 integral format.
 Two-electron integral symmetry is turned off.
 Leave Link  301 at Thu Oct 12 11:58:13 2023, MaxMem=   104857600 cpu:               0.0 elap:               0.0
 (Enter /opt/g16/l402.exe)
 External calculation of energy and first derivatives.
 Running external command "python3 -u ../../src/gamesp.py R"
         input file       "/home/jh-li/scratch/g16/Gau-383947.EIn"
         output file      "/home/jh-li/scratch/g16/Gau-383947.EOu"
         message file     "/home/jh-li/scratch/g16/Gau-383947.EMs"
         fchk file        "/home/jh-li/scratch/g16/Gau-383947.EFC"
         mat. el file     "/home/jh-li/scratch/g16/Gau-383947.EUF"
>>> Running Amesp...
>>> Parsing Amesp output...
>>> 大师大法好！
 Recovered energy= -132.668759484     dipole=     -0.387100000000      0.315800000000      2.311100000000
 NRF= 0 NRA=   0 NVA=   0 HaveQM=F NVQ=       0
 Convergence limit is  0.750E-04 MaxStp= 10000 StMxLn= 3.00D-04 StpMin= 1.00D-06.
 Convergence criteria             0.00011250 0.00007500 0.00045000 0.00030000
  Step  NS  ND Rises OKQ   Scale  Max. Force  RMS Force Max. Disp.  RMS Disp.     Energy   Flag
     1   0   0   F    T  1.00D+00 0.00000000 0.00000000 0.00000000 0.00000000 -132.6687595 ====
 Running external command "python3 -u ../../src/gamesp.py R"
         input file       "/home/jh-li/scratch/g16/Gau-383947.EIn"
         output file      "/home/jh-li/scratch/g16/Gau-383947.EOu"
         message file     "/home/jh-li/scratch/g16/Gau-383947.EMs"
         fchk file        "/home/jh-li/scratch/g16/Gau-383947.EFC"
         mat. el file     "/home/jh-li/scratch/g16/Gau-383947.EUF"
>>> Running Amesp...
>>> Parsing Amesp output...
>>> 大师大法好！
 Recovered energy= -132.668759484     dipole=     -0.387100000000      0.315800000000      2.311100000000
 Energy=    -132.668759     NIter=   0.
 Dipole moment=      -0.387100       0.315800       2.311100
 Leave Link  402 at Thu Oct 12 11:58:17 2023, MaxMem=   104857600 cpu:               0.0 elap:               3.2
 (Enter /opt/g16/l716.exe)
 Dipole        =-3.87100000D-01 3.15800000D-01 2.31110000D+00
 -------------------------------------------------------------------
 Center     Atomic                   Forces (Hartrees/Bohr)
 Number     Number              X              Y              Z
 -------------------------------------------------------------------
      1        6          -0.018189966    0.009307943    0.009256527
      2        1          -0.001222517    0.000323980    0.001182339
      3        1          -0.000950325    0.000833968    0.001145617
      4        1          -0.001112957    0.000595036    0.000765749
      5        7          -0.001731992   -0.001326412   -0.038303262
      6        6           0.023207757   -0.009734514    0.025953030
 -------------------------------------------------------------------
 Cartesian Forces:  Max     0.038303262 RMS     0.013519745
 Leave Link  716 at Thu Oct 12 11:58:17 2023, MaxMem=   104857600 cpu:               0.0 elap:               0.0
 (Enter /opt/g16/l123.exe)
 IRC-IRC-IRC-IRC-IRC-IRC-IRC-IRC-IRC-IRC-IRC-IRC-IRC-IRC-IRC-IRC-IRC-IRC
 Pt  7 Step number   1 out of a maximum of  10
 Using modified Bulirsch-Stoer corrector integration.
   Using distance weighted interpolants to fit PES.
 PreDWI: IReCr0= 2 IReCr1= 1 IReCr2= 1 IReCr3= 1
 Modified Bulirsch-Stoer Extrapolation Cycles:
    EPS =    0.000010000000000
    Cycle     1 NS=    48
      PEZero:  N= 2 I= 1 D=  1.47D-03 Err=  2.64D-05
    Cycle     2 NS=    64 Truncation Error =  0.000026399
      PEZero:  N= 3 I= 2 D=  1.47D-03 Err=  1.75D-05
      PEZero:  N= 3 I= 1 D=  2.94D-03 Err=  8.75D-08
    Cycle     3 NS=    96 Truncation Error =  0.000000088
 BS completed in    3 cycles and     208 integration steps.
 Maximum DWI energy   std dev =  0.000002828 at pt    29
 Maximum DWI gradient std dev =  0.031594721 at pt    38
 SUMMARY OF CORRECTOR INTEGRATION:
   Predictor End Point Energy =  -132.668759
   Old End Point Energy       =  -132.668759
   Corrected End Point Energy =  -132.668765
   Predictor End-Start Dist.  =     0.281937
   Old End-Start Dist.        =     0.281937
   New End-Start Dist.        =     0.281901
   New End-Old End Dist.      =     0.006241
 CORRECTOR INTEGRATION CONVERGENCE:
   Recorrection delta-x convergence threshold:    0.010000
   Delta-x Convergence Met
 Point Number:   7          Path Number:   1
                    CURRENT STRUCTURE
                Cartesian Coordinates (Ang):                
 ---------------------------------------------------------------------
 Center     Atomic                     Coordinates (Angstroms)
 Number     Number                        X           Y           Z
 ---------------------------------------------------------------------
      1          6                   -0.116747    0.117379    1.094778
      2          1                   -0.122239    1.139727    1.470755
      3          1                   -0.903254   -0.473580    1.562476
      4          1                    0.853032   -0.340798    1.289865
      5          7                    0.523086   -0.298869   -0.840038
      6          6                   -0.480737    0.204903   -0.476368
 ---------------------------------------------------------------------
   CHANGE IN THE REACTION COORDINATE =    0.28190
   NET REACTION COORDINATE UP TO THIS POINT =    1.97280
  # OF POINTS ALONG THE PATH =   7
  # OF STEPS =   1

 Calculating another point on the path.
 Point Number  8 in FORWARD path direction.
 Using LQA Reaction Path Following.
   LQA: T_Est iteration completed in    3 iterations.
 IRC-IRC-IRC-IRC-IRC-IRC-IRC-IRC-IRC-IRC-IRC-IRC-IRC-IRC-IRC-IRC-IRC-IRC
 Leave Link  123 at Thu Oct 12 11:58:17 2023, MaxMem=   104857600 cpu:               0.0 elap:               0.0
 (Enter /opt/g16/l202.exe)
                          Input orientation:                          
 ---------------------------------------------------------------------
 Center     Atomic      Atomic             Coordinates (Angstroms)
 Number     Number       Type             X           Y           Z
[...]
 ---------------------------------------------------------------------
      1          6                    0.130300   -0.001967    1.058840
      2          1                    0.034712    1.057621    1.294423
      3          1                   -0.754411   -0.547129    1.387250
      4          1                    1.011691   -0.406867    1.552016
      5          7                    0.405725   -0.222381   -0.471263
      6          6                   -0.627205    0.252282   -0.864538
 ---------------------------------------------------------------------
   CHANGE IN THE REACTION COORDINATE =    0.28178
   NET REACTION COORDINATE UP TO THIS POINT =    2.53618
  # OF POINTS ALONG THE PATH =  19
  # OF STEPS =   2

 Calculating another point on the path.
 Point Number 10 in REVERSE path direction.
 Using LQA Reaction Path Following.
   LQA: T_Est iteration completed in    3 iterations.
 IRC-IRC-IRC-IRC-IRC-IRC-IRC-IRC-IRC-IRC-IRC-IRC-IRC-IRC-IRC-IRC-IRC-IRC
 Leave Link  123 at Thu Oct 12 11:59:28 2023, MaxMem=   104857600 cpu:               0.0 elap:               0.0
 (Enter /opt/g16/l202.exe)
                          Input orientation:                          
 ---------------------------------------------------------------------
 Center     Atomic      Atomic             Coordinates (Angstroms)
 Number     Number       Type             X           Y           Z
 ---------------------------------------------------------------------
      1          6           0        0.145305   -0.008791    1.063360
      2          1           0        0.047556    1.050794    1.297541
      3          1           0       -0.741260   -0.551530    1.390283
      4          1           0        1.022023   -0.410959    1.568895
      5          7           0        0.391238   -0.214396   -0.452860
      6          6           0       -0.628082    0.250956   -0.892389
 ---------------------------------------------------------------------
                    Distance matrix (angstroms):
                    1          2          3          4          5
     1  C    0.000000
     2  H    1.089549   0.000000
     3  H    1.089698   1.788372   0.000000
     4  H    1.089008   1.777622   1.777873   0.000000
     5  N    1.549736   2.186945   2.189381   2.126974   0.000000
     6  C    2.119093   2.427349   2.422269   3.036264   1.203641
                    6
     6  C    0.000000
 Symmetry turned off by external request.
 Stoichiometry    C2H3N
 Framework group  C1[X(C2H3N)]
 Deg. of freedom    12
 Full point group                 C1      NOp   1
 Rotational constants (GHZ):          51.7487768          14.1573390          11.9644535
 Leave Link  202 at Thu Oct 12 11:59:28 2023, MaxMem=   104857600 cpu:               0.0 elap:               0.0
 (Enter /opt/g16/l301.exe)
 Standard basis: STO-3G (5D, 7F)
 Ernie: Thresh=  0.10000D-02 Tol=  0.10000D-05 Strict=F.
    18 basis functions,    54 primitive gaussians,    18 cartesian basis functions
    11 alpha electrons       11 beta electrons
       nuclear repulsion energy        60.2228891993 Hartrees.
 IExCor=    0 DFT=F Ex=HF Corr=None ExCW=0 ScaHFX=  1.000000
 ScaDFX=  1.000000  1.000000  1.000000  1.000000 ScalE2=  1.000000  1.000000
 IRadAn=      5 IRanWt=     -1 IRanGd=            0 ICorTp=0 IEmpDi=  4
 NAtoms=    6 NActive=    6 NUniq=    6 SFac= 1.00D+00 NAtFMM=   60 NAOKFM=F Big=F
 Integral buffers will be    131072 words long.
 Raffenetti 1 integral format.
 Two-electron integral symmetry is turned off.
 Leave Link  301 at Thu Oct 12 11:59:28 2023, MaxMem=   104857600 cpu:               0.1 elap:               0.0
 (Enter /opt/g16/l402.exe)
 External calculation of energy and first derivatives.
 Running external command "python3 -u ../../src/gamesp.py R"
         input file       "/home/jh-li/scratch/g16/Gau-383947.EIn"
         output file      "/home/jh-li/scratch/g16/Gau-383947.EOu"
         message file     "/home/jh-li/scratch/g16/Gau-383947.EMs"
         fchk file        "/home/jh-li/scratch/g16/Gau-383947.EFC"
         mat. el file     "/home/jh-li/scratch/g16/Gau-383947.EUF"
>>> Running Amesp...
>>> Parsing Amesp output...
>>> 大师大法好！
 Recovered energy= -132.673759761     dipole=      0.310100000000     -0.010400000000      2.400900000000
 NRF= 0 NRA=   0 NVA=   0 HaveQM=F NVQ=       0
 Convergence limit is  0.750E-04 MaxStp= 10000 StMxLn= 3.00D-04 StpMin= 1.00D-06.
 Convergence criteria             0.00011250 0.00007500 0.00045000 0.00030000
  Step  NS  ND Rises OKQ   Scale  Max. Force  RMS Force Max. Disp.  RMS Disp.     Energy   Flag
     1   0   0   F    T  1.00D+00 0.00000000 0.00000000 0.00000000 0.00000000 -132.6737598 ====
 Running external command "python3 -u ../../src/gamesp.py R"
         input file       "/home/jh-li/scratch/g16/Gau-383947.EIn"
         output file      "/home/jh-li/scratch/g16/Gau-383947.EOu"
         message file     "/home/jh-li/scratch/g16/Gau-383947.EMs"
         fchk file        "/home/jh-li/scratch/g16/Gau-383947.EFC"
         mat. el file     "/home/jh-li/scratch/g16/Gau-383947.EUF"
>>> Running Amesp...
>>> Parsing Amesp output...
>>> 大师大法好！
 Recovered energy= -132.673759761     dipole=      0.310100000000     -0.010400000000      2.400900000000
 Energy=    -132.673760     NIter=   0.
 Dipole moment=       0.310100      -0.010400       2.400900
 Leave Link  402 at Thu Oct 12 11:59:31 2023, MaxMem=   104857600 cpu:               0.1 elap:               3.2
 (Enter /opt/g16/l716.exe)
 Dipole        = 3.10100000D-01-1.04000000D-02 2.40090000D+00
 -------------------------------------------------------------------
 Center     Atomic                   Forces (Hartrees/Bohr)
 Number     Number              X              Y              Z
 -------------------------------------------------------------------
      1        6           0.013955011   -0.006273882    0.004866483
      2        1           0.000674997   -0.000205001    0.000876799
      3        1           0.000617411   -0.000289856    0.000884458
      4        1           0.000912944   -0.000441625   -0.000002423
      5        7          -0.020876968    0.011033564    0.018435902
      6        6           0.004716605   -0.003823200   -0.025061219
 -------------------------------------------------------------------
 Cartesian Forces:  Max     0.025061219 RMS     0.010065692
 Leave Link  716 at Thu Oct 12 11:59:31 2023, MaxMem=   104857600 cpu:               0.0 elap:               0.0
 (Enter /opt/g16/l123.exe)
 IRC-IRC-IRC-IRC-IRC-IRC-IRC-IRC-IRC-IRC-IRC-IRC-IRC-IRC-IRC-IRC-IRC-IRC
 Pt 20 Step number   1 out of a maximum of  10
 Using modified Bulirsch-Stoer corrector integration.
   Using distance weighted interpolants to fit PES.
 PreDWI: IReCr0= 2 IReCr1= 1 IReCr2= 1 IReCr3= 1
 Modified Bulirsch-Stoer Extrapolation Cycles:
    EPS =    0.000010000000000
    Cycle     1 NS=    48
      PEZero:  N= 2 I= 1 D=  1.47D-03 Err=  7.52D-05
    Cycle     2 NS=    64 Truncation Error =  0.000075163
      PEZero:  N= 3 I= 2 D=  1.47D-03 Err=  5.01D-05
      PEZero:  N= 3 I= 1 D=  2.94D-03 Err=  2.39D-07
    Cycle     3 NS=    96 Truncation Error =  0.000000239
 BS completed in    3 cycles and     208 integration steps.
 Maximum DWI energy   std dev =  0.000003196 at pt    16
 Maximum DWI gradient std dev =  0.067586322 at pt    29
 SUMMARY OF CORRECTOR INTEGRATION:
   Predictor End Point Energy =  -132.673760
   Old End Point Energy       =  -132.673760
   Corrected End Point Energy =  -132.673776
   Predictor End-Start Dist.  =     0.281920
   Old End-Start Dist.        =     0.281920
   New End-Start Dist.        =     0.281802
   New End-Old End Dist.      =     0.011552
 CORRECTOR INTEGRATION CONVERGENCE:
   Recorrection delta-x convergence threshold:    0.010000
   Delta-x Convergence NOT Met
 IRC-IRC-IRC-IRC-IRC-IRC-IRC-IRC-IRC-IRC-IRC-IRC-IRC-IRC-IRC-IRC-IRC-IRC
 Leave Link  123 at Thu Oct 12 11:59:31 2023, MaxMem=   104857600 cpu:               0.0 elap:               0.0
 (Enter /opt/g16/l202.exe)
                          Input orientation:                          
 ---------------------------------------------------------------------
 Center     Atomic      Atomic             Coordinates (Angstroms)
 Number     Number       Type             X           Y           Z
 ---------------------------------------------------------------------
      1          6           0        0.145538   -0.008870    1.063501
      2          1           0        0.047914    1.050619    1.298981
      3          1           0       -0.740765   -0.551600    1.391745
      4          1           0        1.023328   -0.411738    1.566000
      5          7           0        0.390569   -0.214124   -0.453242
      6          6           0       -0.627260    0.250606   -0.891976
 ---------------------------------------------------------------------
                    Distance matrix (angstroms):
                    1          2          3          4          5
     1  C    0.000000
     2  H    1.089724   0.000000
     3  H    1.089878   1.788219   0.000000
     4  H    1.088726   1.777983   1.778188   0.000000
     5  N    1.550057   2.187984   2.190384   2.125270   0.000000
     6  C    2.118593   2.428204   2.423180   3.033939   1.201848
                    6
     6  C    0.000000
 Symmetry turned off by external request.
 Stoichiometry    C2H3N
 Framework group  C1[X(C2H3N)]
 Deg. of freedom    12
 Full point group                 C1      NOp   1
 Rotational constants (GHZ):          51.8268084          14.1603336          11.9706040
 Leave Link  202 at Thu Oct 12 11:59:31 2023, MaxMem=   104857600 cpu:               0.0 elap:               0.0
 (Enter /opt/g16/l301.exe)
 Standard basis: STO-3G (5D, 7F)
 Ernie: Thresh=  0.10000D-02 Tol=  0.10000D-05 Strict=F.
    18 basis functions,    54 primitive gaussians,    18 cartesian basis functions
    11 alpha electrons       11 beta electrons
       nuclear repulsion energy        60.2489743123 Hartrees.
 IExCor=    0 DFT=F Ex=HF Corr=None ExCW=0 ScaHFX=  1.000000
 ScaDFX=  1.000000  1.000000  1.000000  1.000000 ScalE2=  1.000000  1.000000
 IRadAn=      5 IRanWt=     -1 IRanGd=            0 ICorTp=0 IEmpDi=  4
 NAtoms=    6 NActive=    6 NUniq=    6 SFac= 1.00D+00 NAtFMM=   60 NAOKFM=F Big=F
 Integral buffers will be    131072 words long.
 Raffenetti 1 integral format.
 Two-electron integral symmetry is turned off.
 Leave Link  301 at Thu Oct 12 11:59:31 2023, MaxMem=   104857600 cpu:               0.0 elap:               0.0
 (Enter /opt/g16/l402.exe)
 External calculation of energy and first derivatives.
 Running external command "python3 -u ../../src/gamesp.py R"
         input file       "/home/jh-li/scratch/g16/Gau-383947.EIn"
         output file      "/home/jh-li/scratch/g16/Gau-383947.EOu"
         message file     "/home/jh-li/scratch/g16/Gau-383947.EMs"
         fchk file        "/home/jh-li/scratch/g16/Gau-383947.EFC"
         mat. el file     "/home/jh-li/scratch/g16/Gau-383947.EUF"
>>> Running Amesp...
>>> Parsing Amesp output...
>>> 大师大法好！
 Recovered energy= -132.673779513     dipole=      0.315200000000     -0.012600000000      2.405800000000
 NRF= 0 NRA=   0 NVA=   0 HaveQM=F NVQ=       0
 Convergence limit is  0.750E-04 MaxStp= 10000 StMxLn= 3.00D-04 StpMin= 1.00D-06.
 Convergence criteria             0.00011250 0.00007500 0.00045000 0.00030000
  Step  NS  ND Rises OKQ   Scale  Max. Force  RMS Force Max. Disp.  RMS Disp.     Energy   Flag
     1   0   0   F    T  1.00D+00 0.00000000 0.00000000 0.00000000 0.00000000 -132.6737795 ====
 Running external command "python3 -u ../../src/gamesp.py R"
         input file       "/home/jh-li/scratch/g16/Gau-383947.EIn"
         output file      "/home/jh-li/scratch/g16/Gau-383947.EOu"
         message file     "/home/jh-li/scratch/g16/Gau-383947.EMs"
         fchk file        "/home/jh-li/scratch/g16/Gau-383947.EFC"
         mat. el file     "/home/jh-li/scratch/g16/Gau-383947.EUF"
>>> Running Amesp...
>>> Parsing Amesp output...
>>> 大师大法好！
 Recovered energy= -132.673779513     dipole=      0.315200000000     -0.012600000000      2.405800000000
 Energy=    -132.673780     NIter=   0.
 Dipole moment=       0.315200      -0.012600       2.405800
 Leave Link  402 at Thu Oct 12 11:59:34 2023, MaxMem=   104857600 cpu:               0.0 elap:               3.2
 (Enter /opt/g16/l716.exe)
 Dipole        = 3.15200000D-01-1.26000000D-02 2.40580000D+00
 -------------------------------------------------------------------
 Center     Atomic                   Forces (Hartrees/Bohr)
 Number     Number              X              Y              Z
 -------------------------------------------------------------------
      1        6           0.013901532   -0.006262715    0.004787768
      2        1           0.000749277   -0.000301983    0.000734958
      3        1           0.000732120   -0.000299363    0.000735077
      4        1           0.000958696   -0.000443588    0.000277626
      5        7          -0.018221876    0.009834941    0.019726144
      6        6           0.001880252   -0.002527293   -0.026261573
 -------------------------------------------------------------------
 Cartesian Forces:  Max     0.026261573 RMS     0.009934298
 Leave Link  716 at Thu Oct 12 11:59:35 2023, MaxMem=   104857600 cpu:               0.0 elap:               0.0
 (Enter /opt/g16/l123.exe)
 IRC-IRC-IRC-IRC-IRC-IRC-IRC-IRC-IRC-IRC-IRC-IRC-IRC-IRC-IRC-IRC-IRC-IRC
 Error in corrector energy =           0.0000037761
 Magnitude of corrector gradient =     0.0413433577
 Magnitude of analytic gradient =      0.0421476565
 Magnitude of difference =             0.0024106320
 Angle between gradients (degrees)=    3.1195
 Pt 20 Step number   2 out of a maximum of  10
 Using modified Bulirsch-Stoer corrector integration.
   Using distance weighted interpolants to fit PES.
 PreDWI: IReCr0= 2 IReCr1= 1 IReCr2= 1 IReCr3= 1
 Modified Bulirsch-Stoer Extrapolation Cycles:
    EPS =    0.000010000000000
    Cycle     1 NS=    48
      PEZero:  N= 2 I= 1 D=  1.47D-03 Err=  4.51D-05
    Cycle     2 NS=    64 Truncation Error =  0.000045114
      PEZero:  N= 3 I= 2 D=  1.47D-03 Err=  3.00D-05
      PEZero:  N= 3 I= 1 D=  2.94D-03 Err=  2.39D-07
    Cycle     3 NS=    96 Truncation Error =  0.000000239
 BS completed in    3 cycles and     208 integration steps.
 Maximum DWI energy   std dev =  0.000002783 at pt    16
 Maximum DWI gradient std dev =  0.092327806 at pt    38
 SUMMARY OF CORRECTOR INTEGRATION:
   Predictor End Point Energy =  -132.673760
   Old End Point Energy       =  -132.673780
   Corrected End Point Energy =  -132.673782
   Predictor End-Start Dist.  =     0.281920
   Old End-Start Dist.        =     0.281802
   New End-Start Dist.        =     0.281775
   New End-Old End Dist.      =     0.005707
 CORRECTOR INTEGRATION CONVERGENCE:
   Recorrection delta-x convergence threshold:    0.010000
   Delta-x Convergence Met
 Point Number:  10          Path Number:   2
                    CURRENT STRUCTURE
                Cartesian Coordinates (Ang):                
 ---------------------------------------------------------------------
 Center     Atomic                     Coordinates (Angstroms)
 Number     Number                        X           Y           Z
 ---------------------------------------------------------------------
      1          6                    0.145213   -0.008724    1.063425
      2          1                    0.046895    1.050906    1.299469
      3          1                   -0.741506   -0.551148    1.392171
      4          1                    1.023427   -0.411846    1.564064
      5          7                    0.390609   -0.214128   -0.453003
      6          6                   -0.627176    0.250556   -0.892177
 ---------------------------------------------------------------------
   CHANGE IN THE REACTION COORDINATE =    0.28178
   NET REACTION COORDINATE UP TO THIS POINT =    2.81796
  # OF POINTS ALONG THE PATH =  20
  # OF STEPS =   2

 Maximum number of steps reached.
 Calculation of REVERSE path complete.
 Reaction path calculation complete.
 
 Energies reported relative to the TS energy of        -132.652518
 --------------------------------------------------------------------------
    Summary of reaction path following
 --------------------------------------------------------------------------
                        Energy    RxCoord
   1                   -0.02126  -2.81796
   2                   -0.01796  -2.53618
   3                   -0.01477  -2.25440
   4                   -0.01174  -1.97261
   5                   -0.00894  -1.69080
   6                   -0.00641  -1.40899
   7                   -0.00424  -1.12717
   8                   -0.00246  -0.84536
   9                   -0.00113  -0.56355
  10                   -0.00029  -0.28178
  11                    0.00000   0.00000
  12                   -0.00029   0.28175
  13                   -0.00125   0.56352
  14                   -0.00289   0.84533
  15                   -0.00523   1.12717
  16                   -0.00826   1.40904
  17                   -0.01195   1.69090
  18                   -0.01625   1.97280
  19                   -0.02107   2.25465
  20                   -0.02632   2.53654
  21                   -0.03191   2.81838
 --------------------------------------------------------------------------
 
 Total number of points:                   20
 Total number of gradient calculations:    32
 Total number of Hessian calculations:      0
 IRC-IRC-IRC-IRC-IRC-IRC-IRC-IRC-IRC-IRC-IRC-IRC-IRC-IRC-IRC-IRC-IRC-IRC
 Leave Link  123 at Thu Oct 12 11:59:35 2023, MaxMem=   104857600 cpu:               0.0 elap:               0.0
 (Enter /opt/g16/l202.exe)
                          Input orientation:                          
 ---------------------------------------------------------------------
 Center     Atomic      Atomic             Coordinates (Angstroms)
 Number     Number       Type             X           Y           Z
 ---------------------------------------------------------------------
      1          6           0        0.145538   -0.008870    1.063501
      2          1           0        0.047914    1.050619    1.298981
      3          1           0       -0.740765   -0.551600    1.391745
      4          1           0        1.023328   -0.411738    1.566000
      5          7           0        0.390569   -0.214124   -0.453242
      6          6           0       -0.627260    0.250606   -0.891976
 ---------------------------------------------------------------------
                    Distance matrix (angstroms):
                    1          2          3          4          5
     1  C    0.000000
     2  H    1.089724   0.000000
     3  H    1.089878   1.788219   0.000000
     4  H    1.088726   1.777983   1.778188   0.000000
     5  N    1.550057   2.187984   2.190384   2.125270   0.000000
     6  C    2.118593   2.428204   2.423180   3.033939   1.201848
                    6
     6  C    0.000000
 Symmetry turned off by external request.
 Stoichiometry    C2H3N
 Framework group  C1[X(C2H3N)]
 Deg. of freedom    12
 Full point group                 C1      NOp   1
 Rotational constants (GHZ):          51.8268084          14.1603336          11.9706040
 Leave Link  202 at Thu Oct 12 11:59:35 2023, MaxMem=   104857600 cpu:               0.0 elap:               0.0
 (Enter /opt/g16/l601.exe)
 Leave Link  601 at Thu Oct 12 11:59:35 2023, MaxMem=   104857600 cpu:               0.0 elap:               0.0
 (Enter /opt/g16/l9999.exe)

 This type of calculation cannot be archived.


 The lyf so short, the craft so long to lerne.
                             -- Chaucer
 Job cpu time:       0 days  0 hours  0 minutes  6.4 seconds.
 Elapsed time:       0 days  0 hours  1 minutes 48.3 seconds.
 File lengths (MBytes):  RWF=      6 Int=      0 D2E=      0 Chk=      2 Scr=      1
 Normal termination of Gaussian 16 at Thu Oct 12 11:59:35 2023.
