 Entering Gaussian System, Link 0=g16
 Initial command:
 /opt/g16/l1.exe "/home/jh-li/scratch/g16/Gau-383057.inp" -scrdir="/home/jh-li/scratch/g16/"
 Entering Link 1 = /opt/g16/l1.exe PID=    383059.
  
 Copyright (c) 1988-2019, Gaussian, Inc.  All Rights Reserved.
  
 This is part of the Gaussian(R) 16 program.  It is based on
 the Gaussian(R) 09 system (copyright 2009, Gaussian, Inc.),
 the Gaussian(R) 03 system (copyright 2003, Gaussian, Inc.),
 the Gaussian(R) 98 system (copyright 1998, Gaussian, Inc.),
 the Gaussian(R) 94 system (copyright 1995, Gaussian, Inc.),
 the Gaussian 92(TM) system (copyright 1992, Gaussian, Inc.),
 the Gaussian 90(TM) system (copyright 1990, Gaussian, Inc.),
 the Gaussian 88(TM) system (copyright 1988, Gaussian, Inc.),
 the Gaussian 86(TM) system (copyright 1986, Carnegie Mellon
 University), and the Gaussian 82(TM) system (copyright 1983,
 Carnegie Mellon University). Gaussian is a federally registered
 trademark of Gaussian, Inc.
  
 This software contains proprietary and confidential information,
 including trade secrets, belonging to Gaussian, Inc.
  
 This software is provided under written license and may be
 used, copied, transmitted, or stored only in accord with that
 written license.
  
 The following legend is applicable only to US Government
 contracts under FAR:
  
                    RESTRICTED RIGHTS LEGEND
  
 Use, reproduction and disclosure by the US Government is
 subject to restrictions as set forth in subparagraphs (a)
 and (c) of the Commercial Computer Software - Restricted
 Rights clause in FAR 52.227-19.
  
 Gaussian, Inc.
 340 Quinnipiac St., Bldg. 40, Wallingford CT 06492
  
  
 ---------------------------------------------------------------
 Warning -- This program may not be used in any manner that
 competes with the business of Gaussian, Inc. or will provide
 assistance to any competitor of Gaussian, Inc.  The licensee
 of this program is prohibited from giving any competitor of
 Gaussian, Inc. access to this program.  By using this program,
 the user acknowledges that Gaussian, Inc. is engaged in the
 business of creating and licensing software in the field of
 computational chemistry and represents and warrants to the
 licensee that it is not a competitor of Gaussian, Inc. and that
 it will not use this program in any manner prohibited above.
 ---------------------------------------------------------------
  

 Cite this work as:
 Gaussian 16, Revision C.01,
 M. J. Frisch, G. W. Trucks, H. B. Schlegel, G. E. Scuseria, 
 M. A. Robb, J. R. Cheeseman, G. Scalmani, V. Barone, 
 G. A. Petersson, H. Nakatsuji, X. Li, M. Caricato, A. V. Marenich, 
 J. Bloino, B. G. Janesko, R. Gomperts, B. Mennucci, H. P. Hratchian, 
 J. V. Ortiz, A. F. Izmaylov, J. L. Sonnenberg, D. Williams-Young, 
 F. Ding, F. Lipparini, F. Egidi, J. Goings, B. Peng, A. Petrone, 
 T. Henderson, D. Ranasinghe, V. G. Zakrzewski, J. Gao, N. Rega, 
 G. Zheng, W. Liang, M. Hada, M. Ehara, K. Toyota, R. Fukuda, 
 J. Hasegawa, M. Ishida, T. Nakajima, Y. Honda, O. Kitao, H. Nakai, 
 T. Vreven, K. Throssell, J. A. Montgomery, Jr., J. E. Peralta, 
 F. Ogliaro, M. J. Bearpark, J. J. Heyd, E. N. Brothers, K. N. Kudin, 
 V. N. Staroverov, T. A. Keith, R. Kobayashi, J. Normand, 
 K. Raghavachari, A. P. Rendell, J. C. Burant, S. S. Iyengar, 
 J. Tomasi, M. Cossi, J. M. Millam, M. Klene, C. Adamo, R. Cammi, 
 J. W. Ochterski, R. L. Martin, K. Morokuma, O. Farkas, 
 J. B. Foresman, and D. J. Fox, Gaussian, Inc., Wallingford CT, 2019.
 
 ******************************************
 Gaussian 16:  ES64L-G16RevC.01  3-Jul-2019
                12-Oct-2023 
 ******************************************
 %nproc=1
 Will use up to    1 processors via shared memory.
 %chk=CH3CN-ts-opt-freq.chk
 -------------------------------------------------
 #p external="python3 -u ../../src/gamesp.py" freq
 -------------------------------------------------
 1/10=4,18=10,30=1,38=1/1,3;
 2/12=2,17=6,18=5,40=1/2;
 3/11=9,25=1,30=1,41=9900000,43=2,71=2,140=1/1;
 4/20=17,22=2,24=3,113=1,114=1/2;
 6/7=2,8=2,9=2,10=2/1;
 7/8=1,25=1,44=-1/16;
 1/10=4,18=10,30=1/3;
 99//99;
 Leave Link    1 at Thu Oct 12 11:55:54 2023, MaxMem=           0 cpu:               0.0 elap:               0.0
 (Enter /opt/g16/l101.exe)
 -------------------
 Title Card Required
 -------------------
 Symbolic Z-matrix:
 Charge =  0 Multiplicity = 1
 C                    -0.00357   0.01723   0.98554 
 H                    -0.30188   1.00654   1.26334 
 H                    -0.63355  -0.6959    1.47489 
 H                     1.01276  -0.14435   1.27859 
 N                    -0.00535  -0.54793  -0.71776 
 C                    -0.00308   0.59431  -0.81762 
 
 ITRead=  0  0  0  0  0  0
 MicOpt= -1 -1 -1 -1 -1 -1
 NAtoms=      6 NQM=        6 NQMF=       0 NMMI=      0 NMMIF=      0
                NMic=       0 NMicF=      0.
                    Isotopes and Nuclear Properties:
 (Nuclear quadrupole moments (NQMom) in fm**2, nuclear magnetic moments (NMagM)
  in nuclear magnetons)

  Atom         1           2           3           4           5           6
 IAtWgt=          12           1           1           1          14          12
 AtmWgt=  12.0000000   1.0078250   1.0078250   1.0078250  14.0030740  12.0000000
 NucSpn=           0           1           1           1           2           0
 AtZEff=  -0.0000000  -0.0000000  -0.0000000  -0.0000000  -0.0000000  -0.0000000
 NQMom=    0.0000000   0.0000000   0.0000000   0.0000000   2.0440000   0.0000000
 NMagM=    0.0000000   2.7928460   2.7928460   2.7928460   0.4037610   0.0000000
 AtZNuc=   6.0000000   1.0000000   1.0000000   1.0000000   7.0000000   6.0000000
 Leave Link  101 at Thu Oct 12 11:55:54 2023, MaxMem=   104857600 cpu:               0.1 elap:               0.1
 (Enter /opt/g16/l103.exe)

 GradGradGradGradGradGradGradGradGradGradGradGradGradGradGradGradGradGrad
 Berny optimization.
 Initialization pass.
 Trust Radius=3.00D-01 FncErr=1.00D-07 GrdErr=1.00D-07 EigMax=2.50D+02 EigMin=1.00D-04
 Number of steps in this run=      2 maximum allowed number of steps=      2.
 GradGradGradGradGradGradGradGradGradGradGradGradGradGradGradGradGradGrad

 Leave Link  103 at Thu Oct 12 11:55:54 2023, MaxMem=   104857600 cpu:               0.0 elap:               0.0
 (Enter /opt/g16/l202.exe)
                          Input orientation:                          
 ---------------------------------------------------------------------
 Center     Atomic      Atomic             Coordinates (Angstroms)
 Number     Number       Type             X           Y           Z
 ---------------------------------------------------------------------
      1          6           0       -0.003567    0.017228    0.985539
      2          1           0       -0.301884    1.006538    1.263337
      3          1           0       -0.633548   -0.695903    1.474892
      4          1           0        1.012757   -0.144353    1.278588
      5          7           0       -0.005349   -0.547931   -0.717764
      6          6           0       -0.003080    0.594311   -0.817618
 ---------------------------------------------------------------------
                    Distance matrix (angstroms):
                    1          2          3          4          5
     1  C    0.000000
     2  H    1.070000   0.000000
     3  H    1.070000   1.747302   0.000000
     4  H    1.070000   1.747302   1.747302   0.000000
     5  N    1.794616   2.535560   2.285666   2.277023   0.000000
     6  C    1.893251   2.142332   2.705132   2.443692   1.146600
                    6
     6  C    0.000000
 Stoichiometry    C2H3N
 Framework group  C1[X(C2H3N)]
 Deg. of freedom    12
 Full point group                 C1      NOp   1
 Largest Abelian subgroup         C1      NOp   1
 Largest concise Abelian subgroup C1      NOp   1
                         Standard orientation:                         
 ---------------------------------------------------------------------
 Center     Atomic      Atomic             Coordinates (Angstroms)
 Number     Number       Type             X           Y           Z
 ---------------------------------------------------------------------
      1          6           0       -0.985539    0.017228   -0.003567
      2          1           0       -1.263337    1.006538   -0.301884
      3          1           0       -1.474892   -0.695903   -0.633548
      4          1           0       -1.278588   -0.144353    1.012757
      5          7           0        0.717764   -0.547931   -0.005349
      6          6           0        0.817618    0.594311   -0.003080
 ---------------------------------------------------------------------
 Rotational constants (GHZ):          43.9234018          15.0934730          12.0534870
 Leave Link  202 at Thu Oct 12 11:55:54 2023, MaxMem=   104857600 cpu:               0.0 elap:               0.0
 (Enter /opt/g16/l301.exe)
 Standard basis: STO-3G (5D, 7F)
 Ernie: Thresh=  0.10000D-02 Tol=  0.10000D-05 Strict=F.
 There are    18 symmetry adapted cartesian basis functions of A   symmetry.
 There are    18 symmetry adapted basis functions of A   symmetry.
    18 basis functions,    54 primitive gaussians,    18 cartesian basis functions
    11 alpha electrons       11 beta electrons
       nuclear repulsion energy        60.3045740000 Hartrees.
 IExCor=    0 DFT=F Ex=HF Corr=None ExCW=0 ScaHFX=  1.000000
 ScaDFX=  1.000000  1.000000  1.000000  1.000000 ScalE2=  1.000000  1.000000
 IRadAn=      5 IRanWt=     -1 IRanGd=            0 ICorTp=0 IEmpDi=  4
 NAtoms=    6 NActive=    6 NUniq=    6 SFac= 1.00D+00 NAtFMM=   60 NAOKFM=F Big=F
 Integral buffers will be    131072 words long.
 Raffenetti 1 integral format.
 Two-electron integral symmetry is turned on.
 Leave Link  301 at Thu Oct 12 11:55:54 2023, MaxMem=   104857600 cpu:               0.0 elap:               0.0
 (Enter /opt/g16/l402.exe)
 External calculation of energy, first and second derivatives.
 Running external command "python3 -u ../../src/gamesp.py R"
         input file       "/home/jh-li/scratch/g16/Gau-383059.EIn"
         output file      "/home/jh-li/scratch/g16/Gau-383059.EOu"
         message file     "/home/jh-li/scratch/g16/Gau-383059.EMs"
         fchk file        "/home/jh-li/scratch/g16/Gau-383059.EFC"
         mat. el file     "/home/jh-li/scratch/g16/Gau-383059.EUF"
>>> Running Amesp...
>>> Parsing Amesp output...
>>> 大师大法好！
 Recovered energy= -132.644249581     dipole=     -2.899300000000     -0.057300000000     -0.008700000000
 Energy=    -132.644250     NIter=   0.
 Dipole moment=      -2.899300      -0.057300      -0.008700
 Leave Link  402 at Thu Oct 12 11:56:03 2023, MaxMem=   104857600 cpu:               0.0 elap:               8.9
 (Enter /opt/g16/l601.exe)
 Leave Link  601 at Thu Oct 12 11:56:03 2023, MaxMem=   104857600 cpu:               0.0 elap:               0.0
 (Enter /opt/g16/l716.exe)
 Dipole        =-2.89930000D+00-5.73000000D-02-8.70000000D-03
 Full mass-weighted force constant matrix:
 Low frequencies --- -655.4064 -487.4800 -456.1768 -128.6420   -9.8584    1.5829
 Low frequencies ---   11.7033   71.1784  554.8451
 ******    2 imaginary frequencies (negative Signs) ****** 
 Diagonal vibrational polarizability:
        0.0000000       0.0000000       0.0000000
 Harmonic frequencies (cm**-1), IR intensities (KM/Mole), Raman scattering
 activities (A**4/AMU), depolarization ratios for plane and unpolarized
 incident light, reduced masses (AMU), force constants (mDyne/A),
 and normal coordinates:
                      1                      2                      3
                      A                      A                      A
 Frequencies --   -634.8442              -463.5900               553.9454
 Red. masses --      8.1519                 1.3429                 7.5812
 Frc consts  --      1.9357                 0.1700                 1.3706
 IR Inten    --      0.0000                 0.0000                 0.0000
  Atom  AN      X      Y      Z        X      Y      Z        X      Y      Z
     1   6    -0.06   0.32   0.00    -0.00   0.01  -0.00     0.61  -0.00   0.02
     2   1    -0.45   0.16  -0.11     0.02   0.18   0.56     0.42  -0.05  -0.02
     3   1     0.26   0.04   0.08     0.03   0.38  -0.44     0.39   0.18  -0.03
     4   1     0.07   0.28   0.03    -0.04  -0.53  -0.10     0.17   0.12  -0.07
     5   7     0.47  -0.19  -0.02     0.02  -0.01   0.11    -0.26  -0.01  -0.01
     6   6    -0.48  -0.13   0.03    -0.02  -0.00  -0.13    -0.38   0.00  -0.00
                      4                      5                      6
                      A                      A                      A
 Frequencies --    875.9498               938.4883              1325.0739
 Red. masses --      1.1652                 1.1866                 1.1055
 Frc consts  --      0.5268                 0.6157                 1.1436
 IR Inten    --      0.0000                 0.0000                 0.0000
  Atom  AN      X      Y      Z        X      Y      Z        X      Y      Z
     1   6     0.02   0.08   0.03     0.03   0.02  -0.11    -0.09   0.01  -0.00
     2   1    -0.63  -0.12  -0.05    -0.41   0.02   0.25     0.56   0.15  -0.05
     3   1     0.65  -0.28  -0.04    -0.37  -0.07   0.28     0.48  -0.24  -0.10
     4   1    -0.05  -0.25  -0.04     0.72  -0.10   0.06     0.58  -0.10   0.15
     5   7    -0.06  -0.00  -0.00    -0.02   0.00   0.03    -0.02   0.00   0.00
     6   6     0.05  -0.02  -0.01     0.00  -0.01   0.02    -0.02  -0.00   0.00
                      7                      8                      9
                      A                      A                      A
 Frequencies --   1472.1895              1490.9190              2406.8627
 Red. masses --      1.0583                 1.0670                12.6875
 Frc consts  --      1.3514                 1.3974                43.3041
 IR Inten    --      0.0000                 0.0000                 0.0000
  Atom  AN      X      Y      Z        X      Y      Z        X      Y      Z
     1   6     0.01   0.01  -0.07    -0.01  -0.07  -0.01    -0.01   0.01  -0.00
     2   1     0.17   0.25   0.61    -0.24   0.00   0.35    -0.04   0.05  -0.00
     3   1     0.12  -0.46   0.40     0.24   0.14  -0.40     0.07  -0.04   0.00
     4   1    -0.35   0.12  -0.12     0.13   0.73   0.16     0.05  -0.02   0.01
     5   7     0.00   0.00  -0.00    -0.00  -0.00  -0.00    -0.05  -0.65  -0.00
     6   6    -0.00  -0.00  -0.00     0.01  -0.00   0.00     0.06   0.75   0.00
                     10                     11                     12
                      A                      A                      A
 Frequencies --   3289.9889              3396.6502              3403.0915
 Red. masses --      1.0283                 1.1073                 1.1101
 Frc consts  --      6.5579                 7.5272                 7.5747
 IR Inten    --      0.0000                 0.0000                 0.0000
  Atom  AN      X      Y      Z        X      Y      Z        X      Y      Z
     1   6     0.04  -0.01  -0.00    -0.01  -0.09   0.04    -0.01  -0.04  -0.09
     2   1    -0.13   0.55  -0.17    -0.19   0.74  -0.22    -0.02   0.06  -0.04
     3   1    -0.23  -0.38  -0.33     0.15   0.22   0.22     0.32   0.52   0.45
     4   1    -0.14  -0.09   0.56     0.12   0.06  -0.47    -0.16  -0.11   0.61
     5   7     0.00   0.00  -0.00     0.00   0.00  -0.00     0.00   0.00   0.00
     6   6    -0.00  -0.00  -0.00    -0.00  -0.00   0.00    -0.00  -0.00   0.00

 -------------------
 - Thermochemistry -
 -------------------
 Temperature   298.150 Kelvin.  Pressure   1.00000 Atm.
 Atom     1 has atomic number  6 and mass  12.00000
 Atom     2 has atomic number  1 and mass   1.00783
 Atom     3 has atomic number  1 and mass   1.00783
 Atom     4 has atomic number  1 and mass   1.00783
 Atom     5 has atomic number  7 and mass  14.00307
 Atom     6 has atomic number  6 and mass  12.00000
 Molecular mass:    41.02655 amu.
 Principal axes and moments of inertia in atomic units:
                           1         2         3
     Eigenvalues --    41.08837 119.57097 149.72773
           X            0.99999  -0.00342   0.00044
           Y            0.00342   0.99999  -0.00104
           Z           -0.00044   0.00105   1.00000
 This molecule is an asymmetric top.
 Rotational symmetry number  1.
 Rotational temperatures (Kelvin)      2.10799     0.72437     0.57848
 Rotational constants (GHZ):          43.92340    15.09347    12.05349
    2 imaginary frequencies ignored.
 Zero-point vibrational energy     114561.3 (Joules/Mol)
                                   27.38082 (Kcal/Mol)
 Warning -- explicit consideration of   1 degrees of freedom as
           vibrations may cause significant error
 Vibrational temperatures:    797.00  1260.30  1350.28  1906.49  2118.15
          (Kelvin)           2145.10  3462.94  4733.56  4887.02  4896.29
 
 Zero-point correction=                           0.043634 (Hartree/Particle)
 Thermal correction to Energy=                    0.046780
 Thermal correction to Enthalpy=                  0.047725
 Thermal correction to Gibbs Free Energy=         0.019622
 Sum of electronic and zero-point Energies=           -132.600615
 Sum of electronic and thermal Energies=              -132.597469
 Sum of electronic and thermal Enthalpies=            -132.596525
 Sum of electronic and thermal Free Energies=         -132.624628
 
                     E (Thermal)             CV                S
                      KCal/Mol        Cal/Mol-Kelvin    Cal/Mol-Kelvin
 Total                   29.355              8.375             59.147
 Electronic               0.000              0.000              0.000
 Translational            0.889              2.981             37.062
 Rotational               0.889              2.981             21.225
 Vibrational             27.578              2.413              0.860
 Vibration     1          0.909              1.131              0.536
                       Q            Log10(Q)             Ln(Q)
 Total Bot       0.943017D-09         -9.025480        -20.781936
 Total V=0       0.110866D+12         11.044798         25.431587
 Vib (Bot)       0.940371D-20        -20.026701        -46.113183
 Vib (Bot)    1  0.282225D+00         -0.549404         -1.265050
 Vib (V=0)       0.110555D+01          0.043578          0.100341
 Vib (V=0)    1  0.107415D+01          0.031066          0.071532
 Electronic      0.100000D+01          0.000000          0.000000
 Translational   0.103288D+08          7.014051         16.150450
 Rotational      0.970888D+04          3.987169          9.180796
 ***** Axes restored to original set *****
 -------------------------------------------------------------------
 Center     Atomic                   Forces (Hartrees/Bohr)
 Number     Number              X              Y              Z
 -------------------------------------------------------------------
      1        6           0.012395242   -0.007496739   -0.009777161
      2        1          -0.005873031    0.012758683   -0.001670150
      3        1          -0.013404353   -0.012162475   -0.006571465
      4        1           0.012569426   -0.001569035    0.000659611
      5        7          -0.003660906   -0.119902942    0.037538378
      6        6          -0.002026378    0.128372508   -0.020179212
 -------------------------------------------------------------------
 Cartesian Forces:  Max     0.128372508 RMS     0.043286661
 Z-matrix is all fixed cartesians, so copy forces.
 Force constants in Cartesian coordinates: 
                1             2             3             4             5 
      1  0.633606D+00
      2  0.595093D-03  0.575528D+00
      3 -0.209412D-01 -0.589913D-01  0.266298D+00
      4 -0.737282D-01  0.865289D-01  0.210561D-01  0.704872D-01
      5  0.883101D-01 -0.331356D+00 -0.747377D-01 -0.945444D-01  0.351358D+00
      6  0.235523D-01 -0.925723D-01 -0.528014D-01 -0.242354D-01  0.759488D-01
      7 -0.168083D+00 -0.134050D+00  0.848474D-01  0.826508D-02  0.860652D-02
      8 -0.136106D+00 -0.195326D+00  0.102944D+00 -0.212185D-01 -0.183492D-01
      9  0.895878D-01  0.110519D+00 -0.982273D-01 -0.544025D-02 -0.443266D-02
     10 -0.354236D+00  0.478861D-01 -0.824212D-01 -0.606598D-02 -0.714151D-03
     11  0.472811D-01 -0.583640D-01  0.173023D-01  0.313136D-01 -0.217294D-02
     12 -0.823012D-01  0.165524D-01 -0.557138D-01  0.823791D-02  0.583185D-03
     13 -0.254994D-01  0.328470D-02 -0.252430D-02 -0.101430D-02 -0.166942D-02
     14  0.518534D-02 -0.250432D-01 -0.638252D-02 -0.394350D-02  0.428321D-02
     15 -0.482334D-02  0.623730D-01 -0.187803D-01  0.246506D-02 -0.584115D-02
     16 -0.120507D-01 -0.430383D-02 -0.635633D-04  0.206515D-02 -0.537527D-04
     17 -0.528181D-02  0.346224D-01  0.197909D-01  0.180979D-02 -0.368440D-02
     18 -0.508679D-02 -0.379375D-01 -0.407625D-01 -0.205812D-02  0.842906D-02
                6             7             8             9            10 
      6  0.616154D-01
      7 -0.478069D-02  0.171814D+00
      8  0.122430D-01  0.146699D+00  0.207167D+00
      9  0.628671D-02 -0.914180D-01 -0.102297D+00  0.105211D+00
     10 -0.101254D-02 -0.155836D-01  0.503579D-02 -0.433494D-02  0.369347D+00
     11  0.898503D-02 -0.235606D-01  0.552146D-02 -0.698480D-02 -0.517301D-01
     12  0.478974D-02  0.128953D-01 -0.327116D-02  0.726296D-02  0.835366D-01
     13  0.402897D-02  0.238603D-02  0.292918D-02  0.748648D-02  0.359224D-02
     14 -0.459901D-02  0.508382D-03  0.470679D-02  0.963463D-02 -0.466393D-03
     15  0.116440D-01 -0.493290D-02 -0.112622D-01 -0.261953D-01  0.287220D-02
     16  0.245378D-02  0.117099D-02  0.267869D-02  0.415252D-02  0.294714D-02
     17 -0.614333D-04  0.180306D-02 -0.366583D-02 -0.638294D-02  0.550788D-04
     18 -0.315486D-01  0.338846D-02  0.165808D-02  0.567002D-02  0.133545D-02
               11            12            13            14            15 
     11  0.540160D-01
     12 -0.143258D-01  0.705076D-01
     13 -0.398697D-02 -0.130604D-01 -0.431886D-01
     14  0.209550D-02  0.582858D-02  0.203712D-02  0.142486D+01
     15 -0.311763D-02 -0.196229D-01  0.182787D-02 -0.136902D+00 -0.469134D-01
     16  0.777896D-03 -0.930943D-02  0.637401D-01 -0.331477D-02  0.259389D-02
     17 -0.113849D-02 -0.548471D-02 -0.259275D-02 -0.141110D+01  0.947906D-01
     18 -0.196170D-02 -0.711412D-02  0.224430D-02  0.132449D+00  0.998571D-01
               16            17            18 
     16 -0.578727D-01
     17  0.421582D-02  0.138496D+01
     18  0.172749D-03 -0.102653D+00 -0.261021D-01
 Leave Link  716 at Thu Oct 12 11:56:03 2023, MaxMem=   104857600 cpu:               0.0 elap:               0.0
 (Enter /opt/g16/l103.exe)

 GradGradGradGradGradGradGradGradGradGradGradGradGradGradGradGradGradGrad
 Berny optimization.
 Search for a local minimum.
 Step number   1 out of a maximum of    2
 All quantities printed in internal units (Hartrees-Bohrs-Radians)
 Second derivative matrix not updated -- analytic derivatives used.
 The second derivative matrix:
                          X1        Y1        Z1        X2        Y2
           X1           0.63361
           Y1           0.00060   0.57553
           Z1          -0.02094  -0.05899   0.26630
           X2          -0.07373   0.08653   0.02106   0.07049
           Y2           0.08831  -0.33136  -0.07474  -0.09454   0.35136
           Z2           0.02355  -0.09257  -0.05280  -0.02424   0.07595
           X3          -0.16808  -0.13405   0.08485   0.00827   0.00861
           Y3          -0.13611  -0.19533   0.10294  -0.02122  -0.01835
           Z3           0.08959   0.11052  -0.09823  -0.00544  -0.00443
           X4          -0.35424   0.04789  -0.08242  -0.00607  -0.00071
           Y4           0.04728  -0.05836   0.01730   0.03131  -0.00217
           Z4          -0.08230   0.01655  -0.05571   0.00824   0.00058
           X5          -0.02550   0.00328  -0.00252  -0.00101  -0.00167
           Y5           0.00519  -0.02504  -0.00638  -0.00394   0.00428
           Z5          -0.00482   0.06237  -0.01878   0.00247  -0.00584
           X6          -0.01205  -0.00430  -0.00006   0.00207  -0.00005
           Y6          -0.00528   0.03462   0.01979   0.00181  -0.00368
           Z6          -0.00509  -0.03794  -0.04076  -0.00206   0.00843
                          Z2        X3        Y3        Z3        X4
           Z2           0.06162
           X3          -0.00478   0.17181
           Y3           0.01224   0.14670   0.20717
           Z3           0.00629  -0.09142  -0.10230   0.10521
           X4          -0.00101  -0.01558   0.00504  -0.00433   0.36935
           Y4           0.00899  -0.02356   0.00552  -0.00698  -0.05173
           Z4           0.00479   0.01290  -0.00327   0.00726   0.08354
           X5           0.00403   0.00239   0.00293   0.00749   0.00359
           Y5          -0.00460   0.00051   0.00471   0.00963  -0.00047
           Z5           0.01164  -0.00493  -0.01126  -0.02620   0.00287
           X6           0.00245   0.00117   0.00268   0.00415   0.00295
           Y6          -0.00006   0.00180  -0.00367  -0.00638   0.00006
           Z6          -0.03155   0.00339   0.00166   0.00567   0.00134
                          Y4        Z4        X5        Y5        Z5
           Y4           0.05402
           Z4          -0.01433   0.07051
           X5          -0.00399  -0.01306  -0.04319
           Y5           0.00210   0.00583   0.00204   1.42486
           Z5          -0.00312  -0.01962   0.00183  -0.13690  -0.04691
           X6           0.00078  -0.00931   0.06374  -0.00331   0.00259
           Y6          -0.00114  -0.00548  -0.00259  -1.41110   0.09479
           Z6          -0.00196  -0.00711   0.00224   0.13245   0.09986
                          X6        Y6        Z6
           X6          -0.05787
           Y6           0.00422   1.38496
           Z6           0.00017  -0.10265  -0.02610
 ITU=  0
     Eigenvalues ---   -0.17151  -0.05262   0.04581   0.05346   0.07894
     Eigenvalues ---    0.10441   0.10689   0.14977   0.53281   0.84280
     Eigenvalues ---    0.86301   2.83145
 Eigenvalue     1 is  -1.72D-01 should be greater than     0.000000 Eigenvector:
                          Z5        Z6        Y1        Y5        Y2
   1                    0.63222  -0.59609  -0.26872   0.24923  -0.16863
                          Y6        Z2        Y4        Y3        Z3
   1                    0.16222  -0.13422  -0.11692  -0.11298   0.07379
 Eigenvalue     2 is  -5.26D-02 should be greater than     0.000000 Eigenvector:
                          X6        X5        X2        Y4        X3
   1                    0.47612  -0.43505  -0.43025   0.41221   0.34609
                          Y3        Y2        X4        Z4        Z3
   1                   -0.28514  -0.13445   0.07674  -0.04528   0.02814
 Quadratic step=3.684D-01 exceeds max=3.000D-01 adjusted using Lamda=-1.700D-02.
 Angle between NR and scaled steps=   5.32 degrees.
 Angle between quadratic step and forces=  66.81 degrees.
 Linear search not attempted -- first point.
 B after Tr=    -0.006856   -0.002858    0.023694
         Rot=    0.999985    0.003190   -0.004237    0.001171 Ang=   0.62 deg.
 Variable       Old X    -DE/DX   Delta X   Delta X   Delta X     New X
                                 (Linear)    (Quad)   (Total)
    X1       -0.00674   0.01240   0.00000   0.05057   0.05919   0.05245
    Y1        0.03256  -0.00750   0.00000  -0.02987  -0.02121   0.01134
    Z1        1.86240  -0.00978   0.00000  -0.03876  -0.01556   1.84684
    X2       -0.57048  -0.00587   0.00000  -0.02469  -0.00718  -0.57765
    Y2        1.90208   0.01276   0.00000   0.00638   0.01986   1.92194
    Z2        2.38736  -0.00167   0.00000  -0.03732  -0.02091   2.36645
    X3       -1.19723  -0.01340   0.00000  -0.06874  -0.05668  -1.25392
    Y3       -1.31507  -0.01216   0.00000  -0.05200  -0.03529  -1.35035
    Z3        2.78714  -0.00657   0.00000  -0.18963  -0.14663   2.64051
    X4        1.91383   0.01257   0.00000   0.06597   0.07904   1.99288
    Y4       -0.27279  -0.00157   0.00000   0.00439   0.01235  -0.26044
    Z4        2.41618   0.00066   0.00000   0.01590   0.02441   2.44059
    X5       -0.01011  -0.00366   0.00000  -0.02553  -0.04490  -0.05500
    Y5       -1.03544  -0.11990   0.00000  -0.01198  -0.02231  -1.05774
    Z5       -1.35638   0.03754   0.00000   0.16682   0.19758  -1.15880
    X6       -0.00582  -0.00203   0.00000  -0.01178  -0.02947  -0.03529
    Y6        1.12308   0.12837   0.00000   0.05964   0.04660   1.16969
    Z6       -1.54507  -0.02018   0.00000  -0.05527  -0.03889  -1.58396
         Item               Value     Threshold  Converged?
 Maximum Force            0.128373     0.000450     NO 
 RMS     Force            0.043287     0.000300     NO 
 Maximum Displacement     0.197578     0.001800     NO 
 RMS     Displacement     0.068368     0.001200     NO 
 Predicted change in Energy=-1.576411D-02
 GradGradGradGradGradGradGradGradGradGradGradGradGradGradGradGradGradGrad

 Leave Link  103 at Thu Oct 12 11:56:03 2023, MaxMem=   104857600 cpu:               0.0 elap:               0.0
 (Enter /opt/g16/l9999.exe)
 Unable to Open any file for archive entry.
 1\1\GINC-DESKTOP-1D9QDE1\Freq\External='python3 -u ../../src/gamesp.py
 '\ZDO\C2H3N1\JH-LI\12-Oct-2023\0\\#p external="python3 -u ../../src/ga
 mesp.py" freq\\Title Card Required\\0,1\C,-0.00356651,0.01722812,0.985
 53895\H,-0.30188384,1.0065382,1.26333723\H,-0.63354829,-0.69590324,1.4
 7489174\H,1.01275688,-0.14435303,1.27858814\N,-0.0053491,-0.54793073,-
 0.71776351\C,-0.00308033,0.59431074,-0.8176177\\Version=ES64L-G16RevC.
 01\HF=-132.6442496\RMSD=0.000e+00\RMSF=4.329e-02\ZeroPoint=0.0436341\T
 hermal=0.0467804\ETot=-132.5974692\HTot=-132.596525\GTot=-132.6246276\
 Dipole=-0.0087,-0.0573,2.8993\PG=C01 [X(C2H3N1)]\NImag=2\\0.63360603,0
 .00059509,0.57552788,-0.02094119,-0.05899129,0.26629777,-0.07372816,0.
 08652887,0.02105614,0.07048724,0.08831013,-0.33135604,-0.07473773,-0.0
 9454438,0.35135846,0.02355231,-0.09257229,-0.05280144,-0.02423541,0.07
 594885,0.06161538,-0.16808342,-0.13404958,0.08484743,0.00826508,0.0086
 0652,-0.00478069,0.17181400,-0.13610641,-0.19532560,0.10294446,-0.0212
 1855,-0.01834916,0.01224297,0.14669916,0.20716654,0.08958776,0.1105187
 0,-0.09822733,-0.00544025,-0.00443266,0.00628671,-0.09141799,-0.102297
 06,0.10521111,-0.35423553,0.04788610,-0.08242123,-0.00606598,-0.000714
 15,-0.00101254,-0.01558363,0.00503579,-0.00433494,0.36934730,0.0472810
 5,-0.05836401,0.01730234,0.03131356,-0.00217294,0.00898503,-0.02356059
 ,0.00552146,-0.00698480,-0.05173009,0.05401599,-0.08230120,0.01655237,
 -0.05571383,0.00823791,0.00058318,0.00478974,0.01289534,-0.00327116,0.
 00726296,0.08353660,-0.01432582,0.07050759,-0.02549941,0.00328470,-0.0
 0252430,-0.00101430,-0.00166942,0.00402897,0.00238603,0.00292918,0.007
 48648,0.00359224,-0.00398697,-0.01306035,-0.04318862,0.00518534,-0.025
 04322,-0.00638252,-0.00394350,0.00428321,-0.00459901,0.00050838,0.0047
 0679,0.00963463,-0.00046639,0.00209550,0.00582858,0.00203712,1.4248609
 5,-0.00482334,0.06237296,-0.01878027,0.00246506,-0.00584115,0.01164395
 ,-0.00493290,-0.01126217,-0.02619527,0.00287220,-0.00311763,-0.0196229
 2,0.00182787,-0.13690202,-0.04691339,-0.01205073,-0.00430383,-0.000063
 56,0.00206515,-0.00005375,0.00245378,0.00117099,0.00267869,0.00415252,
 0.00294714,0.00077790,-0.00930943,0.06374005,-0.00331477,0.00259389,-0
 .05787268,-0.00528181,0.03462239,0.01979085,0.00180979,-0.00368440,-0.
 00006143,0.00180306,-0.00366583,-0.00638294,0.00005508,-0.00113849,-0.
 00548471,-0.00259275,-1.41109910,0.09479064,0.00421582,1.38496446,-0.0
 0508679,-0.03793746,-0.04076248,-0.00205812,0.00842906,-0.03154856,0.0
 0338846,0.00165808,0.00567002,0.00133545,-0.00196170,-0.00711412,0.002
 24430,0.13244911,0.09985710,0.00017275,-0.10265287,-0.02610209\\-0.012
 39524,0.00749674,0.00977716,0.00587303,-0.01275868,0.00167015,0.013404
 35,0.01216248,0.00657147,-0.01256943,0.00156903,-0.00065961,0.00366091
 ,0.11990294,-0.03753838,0.00202638,-0.12837251,0.02017921\\\@
 The archive entry for this job was punched.


 A COMPLEXITY IS MERELY A DISARRANGEMENT OF SIMPLICITIES.

                                    -- G. O. ABELL IN "EXPLORATION OF THE UNIVERSE"
 Job cpu time:       0 days  0 hours  0 minutes  0.4 seconds.
 Elapsed time:       0 days  0 hours  0 minutes  9.2 seconds.
 File lengths (MBytes):  RWF=      6 Int=      0 D2E=      0 Chk=      1 Scr=      1
 Normal termination of Gaussian 16 at Thu Oct 12 11:56:03 2023.
 Initial command:
 /opt/g16/l1.exe "/home/jh-li/scratch/g16/Gau-383057.inp" -scrdir="/home/jh-li/scratch/g16/"
 Entering Link 1 = /opt/g16/l1.exe PID=    383182.
  
 Copyright (c) 1988-2019, Gaussian, Inc.  All Rights Reserved.
  
 This is part of the Gaussian(R) 16 program.  It is based on
 the Gaussian(R) 09 system (copyright 2009, Gaussian, Inc.),
 the Gaussian(R) 03 system (copyright 2003, Gaussian, Inc.),
 the Gaussian(R) 98 system (copyright 1998, Gaussian, Inc.),
 the Gaussian(R) 94 system (copyright 1995, Gaussian, Inc.),
 the Gaussian 92(TM) system (copyright 1992, Gaussian, Inc.),
 the Gaussian 90(TM) system (copyright 1990, Gaussian, Inc.),
 the Gaussian 88(TM) system (copyright 1988, Gaussian, Inc.),
 the Gaussian 86(TM) system (copyright 1986, Carnegie Mellon
 University), and the Gaussian 82(TM) system (copyright 1983,
 Carnegie Mellon University). Gaussian is a federally registered
 trademark of Gaussian, Inc.
  
 This software contains proprietary and confidential information,
 including trade secrets, belonging to Gaussian, Inc.
  
 This software is provided under written license and may be
 used, copied, transmitted, or stored only in accord with that
 written license.
  
 The following legend is applicable only to US Government
 contracts under FAR:
  
                    RESTRICTED RIGHTS LEGEND
  
 Use, reproduction and disclosure by the US Government is
 subject to restrictions as set forth in subparagraphs (a)
 and (c) of the Commercial Computer Software - Restricted
 Rights clause in FAR 52.227-19.
  
 Gaussian, Inc.
 340 Quinnipiac St., Bldg. 40, Wallingford CT 06492
  
  
 ---------------------------------------------------------------
 Warning -- This program may not be used in any manner that
 competes with the business of Gaussian, Inc. or will provide
 assistance to any competitor of Gaussian, Inc.  The licensee
 of this program is prohibited from giving any competitor of
 Gaussian, Inc. access to this program.  By using this program,
 the user acknowledges that Gaussian, Inc. is engaged in the
 business of creating and licensing software in the field of
 computational chemistry and represents and warrants to the
 licensee that it is not a competitor of Gaussian, Inc. and that
 it will not use this program in any manner prohibited above.
 ---------------------------------------------------------------
  

 Cite this work as:
 Gaussian 16, Revision C.01,
 M. J. Frisch, G. W. Trucks, H. B. Schlegel, G. E. Scuseria, 
 M. A. Robb, J. R. Cheeseman, G. Scalmani, V. Barone, 
 G. A. Petersson, H. Nakatsuji, X. Li, M. Caricato, A. V. Marenich, 
 J. Bloino, B. G. Janesko, R. Gomperts, B. Mennucci, H. P. Hratchian, 
 J. V. Ortiz, A. F. Izmaylov, J. L. Sonnenberg, D. Williams-Young, 
 F. Ding, F. Lipparini, F. Egidi, J. Goings, B. Peng, A. Petrone, 
 T. Henderson, D. Ranasinghe, V. G. Zakrzewski, J. Gao, N. Rega, 
 G. Zheng, W. Liang, M. Hada, M. Ehara, K. Toyota, R. Fukuda, 
 J. Hasegawa, M. Ishida, T. Nakajima, Y. Honda, O. Kitao, H. Nakai, 
 T. Vreven, K. Throssell, J. A. Montgomery, Jr., J. E. Peralta, 
 F. Ogliaro, M. J. Bearpark, J. J. Heyd, E. N. Brothers, K. N. Kudin, 
 V. N. Staroverov, T. A. Keith, R. Kobayashi, J. Normand, 
 K. Raghavachari, A. P. Rendell, J. C. Burant, S. S. Iyengar, 
 J. Tomasi, M. Cossi, J. M. Millam, M. Klene, C. Adamo, R. Cammi, 
 J. W. Ochterski, R. L. Martin, K. Morokuma, O. Farkas, 
 J. B. Foresman, and D. J. Fox, Gaussian, Inc., Wallingford CT, 2019.
 
 ******************************************
 Gaussian 16:  ES64L-G16RevC.01  3-Jul-2019
                12-Oct-2023 
 ******************************************
 %nproc=1
 Will use up to    1 processors via shared memory.
 %chk=CH3CN-ts-opt-freq.chk
 ----------------------------------------------------------------------
 #p external="python3 -u ../../src/gamesp.py" opt=(ts,rcfc,noeigen,nomi
 cro) geom=allcheck
 ----------------------------------------------------------------------
 1/5=1,10=5,11=1,18=20,26=1,29=7,38=1/1,3;
 2/9=110,12=2,40=1/2;
 3/11=9,14=-4,25=1,30=1,41=9900000,43=2,71=1/1;
 4/20=17,22=1,24=3,113=1,114=1/2;
 6/7=2,8=2,9=2,10=2/1;
 7/44=-1/16;
 1/5=1,10=5,11=1,18=20,26=1/3(2);
 2/9=110/2;
 99//99;
 2/9=110/2;
 3/11=9,14=-2,25=1,30=1,41=9900000,43=2,71=1/1;
 4/16=2,20=17,22=1,24=3,113=1,114=1/2;
 7/44=-1/16;
 1/5=1,11=1,18=20,26=1/3(-4);
 2/9=110/2;
 6/7=2,8=2,9=2,10=2/1;
 99/9=10/99;
 Leave Link    1 at Thu Oct 12 11:56:03 2023, MaxMem=           0 cpu:               0.0 elap:               0.0
 (Enter /opt/g16/l101.exe)
 Structure from the checkpoint file:  "CH3CN-ts-opt-freq.chk"
 -------------------
 Title Card Required
 -------------------
 Charge =  0 Multiplicity = 1
 No Z-Matrix found in chk file; cartesian coordinates used.
  C                                                -0.003566510000      0.017228120000      0.985538950000
  H                                                -0.301883840000      1.006538200000      1.263337230000
  H                                                -0.633548290000     -0.695903240000      1.474891740000
  H                                                 1.012756880000     -0.144353030000      1.278588140000
  N                                                -0.005349100000     -0.547930730000     -0.717763510000
  C                                                -0.003080330000      0.594310740000     -0.817617700000
 Recover connectivity data from disk.
 Add virtual bond connecting atoms N5         and C1         Dist= 3.39D+00.
 Add virtual bond connecting atoms C6         and C1         Dist= 3.58D+00.
 ITRead=  0  0  0  0  0  0
 MicOpt= -1 -1 -1 -1 -1 -1
 NAtoms=      6 NQM=        6 NQMF=       0 NMMI=      0 NMMIF=      0
                NMic=       0 NMicF=      0.
                    Isotopes and Nuclear Properties:
 (Nuclear quadrupole moments (NQMom) in fm**2, nuclear magnetic moments (NMagM)
  in nuclear magnetons)

  Atom         1           2           3           4           5           6
 IAtWgt=          12           1           1           1          14          12
 AtmWgt=  12.0000000   1.0078250   1.0078250   1.0078250  14.0030740  12.0000000
 NucSpn=           0           1           1           1           2           0
 AtZEff=   3.6000000   1.0000000   1.0000000   1.0000000   4.5500000   3.6000000
 NQMom=    0.0000000   0.0000000   0.0000000   0.0000000   2.0440000   0.0000000
 NMagM=    0.0000000   2.7928460   2.7928460   2.7928460   0.4037610   0.0000000
 AtZNuc=   6.0000000   1.0000000   1.0000000   1.0000000   7.0000000   6.0000000
 Leave Link  101 at Thu Oct 12 11:56:04 2023, MaxMem=   104857600 cpu:               0.2 elap:               0.2
 (Enter /opt/g16/l103.exe)

 GradGradGradGradGradGradGradGradGradGradGradGradGradGradGradGradGradGrad
 Berny optimization.
 Initialization pass.
 Cartesian force constants read from checkpoint file:
 "CH3CN-ts-opt-freq.chk"
 FormGI is forming the generalized inverse of G from B-inverse, IUseBI=4.
                           ----------------------------
                           !    Initial Parameters    !
                           ! (Angstroms and Degrees)  !
 --------------------------                            --------------------------
 ! Name  Definition              Value          Derivative Info.                !
 --------------------------------------------------------------------------------
 ! R1    R(1,2)                  1.07           D2E/DX2 =    0.3987             !
 ! R2    R(1,3)                  1.07           D2E/DX2 =    0.4003             !
 ! R3    R(1,4)                  1.07           D2E/DX2 =    0.3993             !
 ! R4    R(1,5)                  1.7946         D2E/DX2 =   -0.0092             !
 ! R5    R(1,6)                  1.8933         D2E/DX2 =    0.0165             !
 ! R6    R(5,6)                  1.1466         D2E/DX2 =    1.1772             !
 ! A1    A(2,1,3)              109.4712         D2E/DX2 =    0.0107             !
 ! A2    A(2,1,4)              109.4712         D2E/DX2 =    0.0118             !
 ! A3    A(2,1,5)              122.5006         D2E/DX2 =    0.0522             !
 ! A4    A(2,1,6)               88.0239         D2E/DX2 =    0.0385             !
 ! A5    A(3,1,4)              109.4712         D2E/DX2 =    0.0188             !
 ! A6    A(3,1,5)              102.9204         D2E/DX2 =    0.0444             !
 ! A7    A(3,1,6)              129.7081         D2E/DX2 =    0.0327             !
 ! A8    A(4,1,5)              102.3176         D2E/DX2 =    0.0299             !
 ! A9    A(4,1,6)              107.8563         D2E/DX2 =    0.0283             !
 ! D1    D(2,1,4,3)            119.9999         D2E/DX2 =    0.0216             !
 ! D2    D(2,1,5,3)           -123.4802         D2E/DX2 =    0.0081             !
 ! D3    D(2,1,6,3)           -113.8844         D2E/DX2 =    0.0086             !
 ! D4    D(2,1,5,4)            122.9328         D2E/DX2 =    0.0122             !
 ! D5    D(2,1,6,4)            109.8339         D2E/DX2 =    0.0102             !
 ! D6    D(2,1,6,5)           -163.6841         D2E/DX2 =   -0.0001             !
 ! D7    D(3,1,5,4)           -113.587          D2E/DX2 =    0.0172             !
 ! D8    D(3,1,6,4)           -136.2817         D2E/DX2 =    0.0133             !
 ! D9    D(3,1,6,5)            -49.7998         D2E/DX2 =    0.0006             !
 ! D10   D(4,1,6,5)             86.4819         D2E/DX2 =    0.0046             !
 --------------------------------------------------------------------------------
 Trust Radius=3.00D-01 FncErr=1.00D-07 GrdErr=1.00D-07 EigMax=2.50D+02 EigMin=1.00D-04
 Number of steps in this run=     35 maximum allowed number of steps=    100.
 Search for a saddle point of order  1.
 GradGradGradGradGradGradGradGradGradGradGradGradGradGradGradGradGradGrad

 Leave Link  103 at Thu Oct 12 11:56:04 2023, MaxMem=   104857600 cpu:               0.0 elap:               0.0
 (Enter /opt/g16/l202.exe)
                          Input orientation:                          
 ---------------------------------------------------------------------
 Center     Atomic      Atomic             Coordinates (Angstroms)
 Number     Number       Type             X           Y           Z
 ---------------------------------------------------------------------
      1          6           0       -0.003567    0.017228    0.985539
      2          1           0       -0.301884    1.006538    1.263337
      3          1           0       -0.633548   -0.695903    1.474892
      4          1           0        1.012757   -0.144353    1.278588
      5          7           0       -0.005349   -0.547931   -0.717764
      6          6           0       -0.003080    0.594311   -0.817618
 ---------------------------------------------------------------------
                    Distance matrix (angstroms):
                    1          2          3          4          5
     1  C    0.000000
     2  H    1.070000   0.000000
     3  H    1.070000   1.747302   0.000000
     4  H    1.070000   1.747302   1.747302   0.000000
     5  N    1.794616   2.535560   2.285666   2.277023   0.000000
     6  C    1.893251   2.142332   2.705132   2.443692   1.146600
                    6
     6  C    0.000000
 Stoichiometry    C2H3N
 Framework group  C1[X(C2H3N)]
 Deg. of freedom    12
 Full point group                 C1      NOp   1
 RotChk:  IX=0 Diff= 1.84D-16
 Largest Abelian subgroup         C1      NOp   1
 Largest concise Abelian subgroup C1      NOp   1
                         Standard orientation:                         
 ---------------------------------------------------------------------
 Center     Atomic      Atomic             Coordinates (Angstroms)
 Number     Number       Type             X           Y           Z
 ---------------------------------------------------------------------
      1          6           0       -0.985539    0.017228   -0.003567
      2          1           0       -1.263337    1.006538   -0.301884
      3          1           0       -1.474892   -0.695903   -0.633548
      4          1           0       -1.278588   -0.144353    1.012757
      5          7           0        0.717764   -0.547931   -0.005349
      6          6           0        0.817618    0.594311   -0.003080
 ---------------------------------------------------------------------
 Rotational constants (GHZ):          43.9234018          15.0934730          12.0534870
 Leave Link  202 at Thu Oct 12 11:56:04 2023, MaxMem=   104857600 cpu:               0.0 elap:               0.0
 (Enter /opt/g16/l301.exe)
 Standard basis: STO-3G (5D, 7F)
 Ernie: Thresh=  0.10000D-02 Tol=  0.10000D-05 Strict=F.
 There are    18 symmetry adapted cartesian basis functions of A   symmetry.
 There are    18 symmetry adapted basis functions of A   symmetry.
    18 basis functions,    54 primitive gaussians,    18 cartesian basis functions
    11 alpha electrons       11 beta electrons
       nuclear repulsion energy        60.3045740000 Hartrees.
 IExCor=    0 DFT=F Ex=HF Corr=None ExCW=0 ScaHFX=  1.000000
 ScaDFX=  1.000000  1.000000  1.000000  1.000000 ScalE2=  1.000000  1.000000
 IRadAn=      5 IRanWt=     -1 IRanGd=            0 ICorTp=0 IEmpDi=  4
 NAtoms=    6 NActive=    6 NUniq=    6 SFac= 1.00D+00 NAtFMM=   60 NAOKFM=F Big=F
 Integral buffers will be    131072 words long.
 Raffenetti 1 integral format.
 Two-electron integral symmetry is turned on.
 Leave Link  301 at Thu Oct 12 11:56:04 2023, MaxMem=   104857600 cpu:               0.0 elap:               0.0
 (Enter /opt/g16/l402.exe)
 External calculation of energy and first derivatives.
 Running external command "python3 -u ../../src/gamesp.py R"
         input file       "/home/jh-li/scratch/g16/Gau-383182.EIn"
         output file      "/home/jh-li/scratch/g16/Gau-383182.EOu"
         message file     "/home/jh-li/scratch/g16/Gau-383182.EMs"
         fchk file        "/home/jh-li/scratch/g16/Gau-383182.EFC"
         mat. el file     "/home/jh-li/scratch/g16/Gau-383182.EUF"
>>> Running Amesp...
>>> Parsing Amesp output...
>>> 大师大法好！
 Recovered energy= -132.644249581     dipole=     -2.899300000000     -0.057300000000     -0.008700000000
 Energy=    -132.644250     NIter=   0.
 Dipole moment=      -2.899300      -0.057300      -0.008700
 Leave Link  402 at Thu Oct 12 11:56:05 2023, MaxMem=   104857600 cpu:               0.0 elap:               1.7
 (Enter /opt/g16/l601.exe)
 Leave Link  601 at Thu Oct 12 11:56:05 2023, MaxMem=   104857600 cpu:               0.0 elap:               0.0
 (Enter /opt/g16/l716.exe)
 Dipole        =-2.89930000D+00-5.73000000D-02-8.70000000D-03
 ***** Axes restored to original set *****
 -------------------------------------------------------------------
 Center     Atomic                   Forces (Hartrees/Bohr)
 Number     Number              X              Y              Z
 -------------------------------------------------------------------
      1        6           0.012395242   -0.007496739   -0.009777161
      2        1          -0.005873031    0.012758683   -0.001670150
      3        1          -0.013404353   -0.012162475   -0.006571465
      4        1           0.012569426   -0.001569035    0.000659611
      5        7          -0.003660906   -0.119902942    0.037538378
      6        6          -0.002026378    0.128372508   -0.020179212
 -------------------------------------------------------------------
 Cartesian Forces:  Max     0.128372508 RMS     0.043286661
 Leave Link  716 at Thu Oct 12 11:56:05 2023, MaxMem=   104857600 cpu:               0.0 elap:               0.0
 (Enter /opt/g16/l103.exe)

 GradGradGradGradGradGradGradGradGradGradGradGradGradGradGradGradGradGrad
 Berny optimization.
 FormGI is forming the generalized inverse of G from B-inverse, IUseBI=4.
 Internal  Forces:  Max     0.115856453 RMS     0.025559335
 Search for a saddle point.
 Step number   1 out of a maximum of   35
 All quantities printed in internal units (Hartrees-Bohrs-Radians)
 Swapping is turned off.
 Second derivative matrix not updated -- first step.
 ITU=  0
     Eigenvalues ---   -0.08106  -0.00767   0.01909   0.02742   0.03761
     Eigenvalues ---    0.07252   0.08863   0.09619   0.39734   0.39802
     Eigenvalues ---    0.40392   1.29440
 Eigenvectors required to have negative eigenvalues:
                          R4        R5        A3        A4        A6
   1                   -0.73147   0.60580  -0.16086  -0.14574   0.12426
                          A7        D8        D3        A5        A8
   1                    0.10911  -0.08016   0.06060  -0.05388   0.04307
 Eigenvalue     2 is  -7.67D-03 should be greater than     0.000000 Eigenvector:
                          D9        D6        D10       A9        A7
   1                   -0.59821  -0.51533  -0.48800   0.19347  -0.17581
                          A8        D4        D8        D2        D3
   1                   -0.12483  -0.11222  -0.11021  -0.10853   0.08287
 RFO step:  Lambda0=7.372429373D-03 Lambda=-1.76971394D-02.
 Linear search not attempted -- option 19 set.
 Maximum step size (   0.300) exceeded in Quadratic search.
    -- Step size scaled by   0.621
 Iteration  1 RMS(Cart)=  0.07950809 RMS(Int)=  0.02175496
 Iteration  2 RMS(Cart)=  0.01587181 RMS(Int)=  0.00668187
 Iteration  3 RMS(Cart)=  0.00036815 RMS(Int)=  0.00666294
 Iteration  4 RMS(Cart)=  0.00000284 RMS(Int)=  0.00666294
 Iteration  5 RMS(Cart)=  0.00000002 RMS(Int)=  0.00666294
 ITry= 1 IFail=0 DXMaxC= 2.69D-01 DCOld= 1.00D+10 DXMaxT= 3.00D-01 DXLimC= 3.00D+00 Rises=F
 Variable       Old X    -DE/DX   Delta X   Delta X   Delta X     New X
                                 (Linear)    (Quad)   (Total)
    R1        2.02201   0.01301   0.00000   0.01985   0.01985   2.04185
    R2        2.02201   0.01299   0.00000   0.01606   0.01606   2.03806
    R3        2.02201   0.01235   0.00000   0.01651   0.01651   2.03851
    R4        3.39133  -0.02464   0.00000   0.08487   0.08209   3.47342
    R5        3.57773   0.01356   0.00000  -0.12621  -0.12883   3.44890
    R6        2.16676   0.11586   0.00000   0.05077   0.05917   2.22593
    A1        1.91063   0.00583   0.00000   0.01361   0.00887   1.91951
    A2        1.91063   0.00159   0.00000   0.00184   0.00056   1.91120
    A3        2.13804   0.01791   0.00000   0.07257   0.06098   2.19902
    A4        1.53631  -0.01542   0.00000   0.00428   0.00912   1.54543
    A5        1.91063   0.00361   0.00000   0.05151   0.05199   1.96262
    A6        1.79630  -0.02442   0.00000  -0.08148  -0.06634   1.72996
    A7        2.26383   0.00258   0.00000  -0.17765  -0.18527   2.07856
    A8        1.78578  -0.00640   0.00000  -0.05943  -0.05534   1.73043
    A9        1.88245  -0.00102   0.00000   0.10774   0.11380   1.99625
    D1        2.09439   0.01032   0.00000   0.04933   0.04512   2.13952
    D2       -2.15514   0.00187   0.00000   0.00535   0.00875  -2.14639
    D3       -1.98766   0.00510   0.00000   0.03655   0.03028  -1.95738
    D4        2.14558   0.00845   0.00000  -0.00218  -0.01037   2.13521
    D5        1.91696  -0.00349   0.00000   0.01192   0.01692   1.93388
    D6       -2.85683   0.00110   0.00000  -0.23208  -0.23022  -3.08704
    D7       -1.98247   0.00658   0.00000  -0.00753  -0.01912  -2.00159
    D8       -2.37856  -0.00859   0.00000  -0.02463  -0.01336  -2.39192
    D9       -0.86917  -0.00400   0.00000  -0.26864  -0.26049  -1.12966
   D10        1.50939   0.00459   0.00000  -0.24400  -0.24713   1.26226
         Item               Value     Threshold  Converged?
 Maximum Force            0.115856     0.000450     NO 
 RMS     Force            0.025559     0.000300     NO 
 Maximum Displacement     0.268933     0.001800     NO 
 RMS     Displacement     0.090204     0.001200     NO 
 Predicted change in Energy=-5.492414D-03
 GradGradGradGradGradGradGradGradGradGradGradGradGradGradGradGradGradGrad

 Leave Link  103 at Thu Oct 12 11:56:05 2023, MaxMem=   104857600 cpu:               0.0 elap:               0.0
 (Enter /opt/g16/l202.exe)
                          Input orientation:                          
 ---------------------------------------------------------------------
 Center     Atomic      Atomic             Coordinates (Angstroms)
 Number     Number       Type             X           Y           Z
 ---------------------------------------------------------------------
      1          6           0        0.017950    0.040518    0.987029
      2          1           0       -0.249532    1.043662    1.286431
      3          1           0       -0.690516   -0.665649    1.390213
      4          1           0        1.030052   -0.169610    1.295518
      5          7           0        0.102767   -0.585211   -0.739157
      6          6           0       -0.145394    0.566181   -0.753059
 ---------------------------------------------------------------------
                    Distance matrix (angstroms):
                    1          2          3          4          5
     1  C    0.000000
     2  H    1.080502   0.000000
     3  H    1.078496   1.768328   0.000000
     4  H    1.078735   1.763362   1.793147   0.000000
     5  N    1.838056   2.623042   2.273760   2.274310   0.000000
     6  C    1.825078   2.097225   2.531438   2.473809   1.177914
                    6
     6  C    0.000000
 Stoichiometry    C2H3N
 Framework group  C1[X(C2H3N)]
 Deg. of freedom    12
 Full point group                 C1      NOp   1
 RotChk:  IX=0 Diff= 3.14D-01
 Largest Abelian subgroup         C1      NOp   1
 Largest concise Abelian subgroup C1      NOp   1
                         Standard orientation:                         
 ---------------------------------------------------------------------
 Center     Atomic      Atomic             Coordinates (Angstroms)
 Number     Number       Type             X           Y           Z
 ---------------------------------------------------------------------
      1          6           0       -0.979177   -0.018499   -0.000985
      2          1           0       -1.345984    0.995996   -0.062125
      3          1           0       -1.321375   -0.585989   -0.851872
      4          1           0       -1.285260   -0.456272    0.936212
      5          7           0        0.786064   -0.530721   -0.000033
      6          6           0        0.720872    0.645384   -0.002679
 ---------------------------------------------------------------------
 Rotational constants (GHZ):          41.6951975          15.3668941          12.0988143
 Leave Link  202 at Thu Oct 12 11:56:05 2023, MaxMem=   104857600 cpu:               0.0 elap:               0.0
 (Enter /opt/g16/l301.exe)
 Standard basis: STO-3G (5D, 7F)
 Ernie: Thresh=  0.10000D-02 Tol=  0.10000D-05 Strict=F.
 There are    18 symmetry adapted cartesian basis functions of A   symmetry.
 There are    18 symmetry adapted basis functions of A   symmetry.
    18 basis functions,    54 primitive gaussians,    18 cartesian basis functions
    11 alpha electrons       11 beta electrons
       nuclear repulsion energy        59.8403917425 Hartrees.
 IExCor=    0 DFT=F Ex=HF Corr=None ExCW=0 ScaHFX=  1.000000
 ScaDFX=  1.000000  1.000000  1.000000  1.000000 ScalE2=  1.000000  1.000000
 IRadAn=      5 IRanWt=     -1 IRanGd=            0 ICorTp=0 IEmpDi=  4
 NAtoms=    6 NActive=    6 NUniq=    6 SFac= 1.00D+00 NAtFMM=   60 NAOKFM=F Big=F
 Integral buffers will be    131072 words long.
 Raffenetti 1 integral format.
 Two-electron integral symmetry is turned on.
 Leave Link  301 at Thu Oct 12 11:56:06 2023, MaxMem=   104857600 cpu:               0.1 elap:               0.1
 (Enter /opt/g16/l402.exe)
 External calculation of energy and first derivatives.
 Running external command "python3 -u ../../src/gamesp.py R"
         input file       "/home/jh-li/scratch/g16/Gau-383182.EIn"
         output file      "/home/jh-li/scratch/g16/Gau-383182.EOu"
         message file     "/home/jh-li/scratch/g16/Gau-383182.EMs"
         fchk file        "/home/jh-li/scratch/g16/Gau-383182.EFC"
         mat. el file     "/home/jh-li/scratch/g16/Gau-383182.EUF"
>>> Running Amesp...
>>> Parsing Amesp output...
>>> 大师大法好！
 Recovered energy= -132.649022268     dipole=     -2.785000000000     -0.142500000000     -0.002500000000
 Energy=    -132.649022     NIter=   0.
 Dipole moment=      -2.785000      -0.142500      -0.002500
 Leave Link  402 at Thu Oct 12 11:56:07 2023, MaxMem=   104857600 cpu:               0.0 elap:               1.7
 (Enter /opt/g16/l716.exe)
 Dipole        =-2.78500000D+00-1.42500000D-01-2.50000000D-03
 ***** Axes restored to original set *****
 -------------------------------------------------------------------
 Center     Atomic                   Forces (Hartrees/Bohr)
 Number     Number              X              Y              Z
 -------------------------------------------------------------------
      1        6           0.004333337   -0.002802518   -0.002568232
      2        1          -0.002450648    0.005249602    0.000511691
      3        1          -0.004992115   -0.005089762   -0.002896376
      4        1           0.005579267   -0.002102317   -0.000954876
      5        7           0.007641505   -0.038436591    0.013682399
      6        6          -0.010111347    0.043181586   -0.007774606
 -------------------------------------------------------------------
 Cartesian Forces:  Max     0.043181586 RMS     0.014744179
 Leave Link  716 at Thu Oct 12 11:56:07 2023, MaxMem=   104857600 cpu:               0.0 elap:               0.0
 (Enter /opt/g16/l103.exe)

 GradGradGradGradGradGradGradGradGradGradGradGradGradGradGradGradGradGrad
 Berny optimization.
 FormGI is forming the generalized inverse of G from B-inverse, IUseBI=4.
 Internal  Forces:  Max     0.039353188 RMS     0.009092012
 Search for a saddle point.
 Step number   2 out of a maximum of   35
 All quantities printed in internal units (Hartrees-Bohrs-Radians)
 Swapping is turned off.
 Update second derivatives using D2CorX and points    1    2
 ITU=  0  0
     Eigenvalues ---   -0.07894  -0.00585   0.01990   0.02728   0.03754
     Eigenvalues ---    0.07507   0.08772   0.09598   0.39733   0.39802
     Eigenvalues ---    0.40382   1.29411
 Eigenvectors required to have negative eigenvalues:
                          R4        R5        A4        A3        A6
   1                   -0.73097   0.60220  -0.17121  -0.15164   0.10895
                          A7        D8        D9        D3        A5
   1                    0.10317  -0.09805  -0.07122   0.05959  -0.04544
 Eigenvalue     2 is  -5.85D-03 should be greater than     0.000000 Eigenvector:
                          D9        D6        D10       A7        A9
   1                   -0.54698  -0.52791  -0.52336  -0.18525   0.17311
                          D4        D2        A8        A6        R4
   1                   -0.15687  -0.14498  -0.14157   0.11090   0.03852
 RFO step:  Lambda0=2.304146023D-03 Lambda=-5.90677753D-03.
 Linear search not attempted -- option 19 set.
 Maximum step size (   0.300) exceeded in Quadratic search.
    -- Step size scaled by   0.862
 Iteration  1 RMS(Cart)=  0.07708222 RMS(Int)=  0.04934966
 Iteration  2 RMS(Cart)=  0.03860168 RMS(Int)=  0.01004159
 Iteration  3 RMS(Cart)=  0.00190426 RMS(Int)=  0.00965298
 Iteration  4 RMS(Cart)=  0.00001875 RMS(Int)=  0.00965295
 Iteration  5 RMS(Cart)=  0.00000023 RMS(Int)=  0.00965295
 ITry= 1 IFail=0 DXMaxC= 3.22D-01 DCOld= 1.00D+10 DXMaxT= 3.00D-01 DXLimC= 3.00D+00 Rises=F
 Variable       Old X    -DE/DX   Delta X   Delta X   Delta X     New X
                                 (Linear)    (Quad)   (Total)
    R1        2.04185   0.00562   0.00000   0.01283   0.01283   2.05468
    R2        2.03806   0.00553   0.00000   0.00974   0.00974   2.04781
    R3        2.03851   0.00537   0.00000   0.01119   0.01119   2.04970
    R4        3.47342  -0.01245   0.00000   0.10013   0.09539   3.56882
    R5        3.44890   0.00849   0.00000  -0.07824  -0.08113   3.36777
    R6        2.22593   0.03935   0.00000   0.03932   0.05101   2.27694
    A1        1.91951   0.00143   0.00000   0.01315   0.01180   1.93131
    A2        1.91120   0.00139   0.00000  -0.00555  -0.01107   1.90013
    A3        2.19902   0.00748   0.00000   0.07428   0.04921   2.24823
    A4        1.54543  -0.00494   0.00000   0.05127   0.06575   1.61118
    A5        1.96262   0.00135   0.00000   0.02753   0.03029   1.99291
    A6        1.72996  -0.00759   0.00000   0.00006   0.01441   1.74437
    A7        2.07856  -0.00081   0.00000  -0.18493  -0.19082   1.88774
    A8        1.73043  -0.00488   0.00000  -0.11303  -0.09760   1.63283
    A9        1.99625   0.00066   0.00000   0.11023   0.10565   2.10189
    D1        2.13952   0.00375   0.00000   0.03170   0.02827   2.16779
    D2       -2.14639   0.00039   0.00000  -0.06772  -0.06876  -2.21515
    D3       -1.95738   0.00141   0.00000  -0.00872  -0.00841  -1.96579
    D4        2.13521   0.00211   0.00000  -0.06813  -0.07984   2.05537
    D5        1.93388  -0.00072   0.00000   0.03420   0.04747   1.98135
    D6       -3.08704   0.00027   0.00000  -0.33530  -0.32620   2.86994
    D7       -2.00159   0.00172   0.00000  -0.00041  -0.01108  -2.01267
    D8       -2.39192  -0.00213   0.00000   0.04293   0.05588  -2.33605
    D9       -1.12966  -0.00114   0.00000  -0.32658  -0.31779  -1.44746
   D10        1.26226   0.00099   0.00000  -0.36950  -0.37367   0.88859
         Item               Value     Threshold  Converged?
 Maximum Force            0.039353     0.000450     NO 
 RMS     Force            0.009092     0.000300     NO 
 Maximum Displacement     0.322292     0.001800     NO 
 RMS     Displacement     0.109570     0.001200     NO 
 Predicted change in Energy=-1.662471D-03
 GradGradGradGradGradGradGradGradGradGradGradGradGradGradGradGradGradGrad

 Leave Link  103 at Thu Oct 12 11:56:07 2023, MaxMem=   104857600 cpu:               0.0 elap:               0.0
 (Enter /opt/g16/l202.exe)
                          Input orientation:                          
 ---------------------------------------------------------------------
 Center     Atomic      Atomic             Coordinates (Angstroms)
 Number     Number       Type             X           Y           Z
 ---------------------------------------------------------------------
      1          6           0        0.023725    0.064443    0.990322
      2          1           0       -0.177669    1.078019    1.328408
      3          1           0       -0.750146   -0.613142    1.331357
      4          1           0        1.025865   -0.215045    1.297046
      5          7           0        0.259496   -0.570502   -0.772580
      6          6           0       -0.315943    0.486117   -0.707578
 ---------------------------------------------------------------------
                    Distance matrix (angstroms):
                    1          2          3          4          5
     1  C    0.000000
     2  H    1.087290   0.000000
     3  H    1.083652   1.785431   0.000000
     4  H    1.084655   1.766775   1.820405   0.000000
     5  N    1.888536   2.706083   2.334041   2.235403   0.000000
     6  C    1.782147   2.124783   2.356725   2.512089   1.204906
                    6
     6  C    0.000000
 Stoichiometry    C2H3N
 Framework group  C1[X(C2H3N)]
 Deg. of freedom    12
 Full point group                 C1      NOp   1
 RotChk:  IX=2 Diff= 4.29D-01
 Largest Abelian subgroup         C1      NOp   1
 Largest concise Abelian subgroup C1      NOp   1
                         Standard orientation:                         
 ---------------------------------------------------------------------
 Center     Atomic      Atomic             Coordinates (Angstroms)
 Number     Number       Type             X           Y           Z
 ---------------------------------------------------------------------
      1          6           0       -0.981678   -0.049837   -0.003467
      2          1           0       -1.451269    0.885620    0.290818
      3          1           0       -1.234363   -0.298874   -1.027396
      4          1           0       -1.243957   -0.816168    0.717938
      5          7           0        0.850625   -0.507235    0.000783
      6          6           0        0.644214    0.679848    0.005660
 ---------------------------------------------------------------------
 Rotational constants (GHZ):          40.7636156          15.2254670          11.9607940
 Leave Link  202 at Thu Oct 12 11:56:07 2023, MaxMem=   104857600 cpu:               0.0 elap:               0.0
 (Enter /opt/g16/l301.exe)
 Standard basis: STO-3G (5D, 7F)
 Ernie: Thresh=  0.10000D-02 Tol=  0.10000D-05 Strict=F.
 There are    18 symmetry adapted cartesian basis functions of A   symmetry.
 There are    18 symmetry adapted basis functions of A   symmetry.
    18 basis functions,    54 primitive gaussians,    18 cartesian basis functions
    11 alpha electrons       11 beta electrons
       nuclear repulsion energy        59.2863879971 Hartrees.
 IExCor=    0 DFT=F Ex=HF Corr=None ExCW=0 ScaHFX=  1.000000
 ScaDFX=  1.000000  1.000000  1.000000  1.000000 ScalE2=  1.000000  1.000000
 IRadAn=      5 IRanWt=     -1 IRanGd=            0 ICorTp=0 IEmpDi=  4
 NAtoms=    6 NActive=    6 NUniq=    6 SFac= 1.00D+00 NAtFMM=   60 NAOKFM=F Big=F
 Integral buffers will be    131072 words long.
 Raffenetti 1 integral format.
 Two-electron integral symmetry is turned on.
 Leave Link  301 at Thu Oct 12 11:56:07 2023, MaxMem=   104857600 cpu:               0.0 elap:               0.0
 (Enter /opt/g16/l402.exe)
 External calculation of energy and first derivatives.
 Running external command "python3 -u ../../src/gamesp.py R"
         input file       "/home/jh-li/scratch/g16/Gau-383182.EIn"
         output file      "/home/jh-li/scratch/g16/Gau-383182.EOu"
         message file     "/home/jh-li/scratch/g16/Gau-383182.EMs"
         fchk file        "/home/jh-li/scratch/g16/Gau-383182.EFC"
         mat. el file     "/home/jh-li/scratch/g16/Gau-383182.EUF"
>>> Running Amesp...
>>> Parsing Amesp output...
>>> 大师大法好！
 Recovered energy= -132.649418552     dipole=     -2.673500000000     -0.222400000000      0.038800000000
 Energy=    -132.649419     NIter=   0.
 Dipole moment=      -2.673500      -0.222400       0.038800
 Leave Link  402 at Thu Oct 12 11:56:09 2023, MaxMem=   104857600 cpu:               0.0 elap:               1.6
 (Enter /opt/g16/l716.exe)
 Dipole        =-2.67350000D+00-2.22400000D-01 3.88000000D-02
 ***** Axes restored to original set *****
 -------------------------------------------------------------------
 Center     Atomic                   Forces (Hartrees/Bohr)
 Number     Number              X              Y              Z
 -------------------------------------------------------------------
      1        6          -0.005041822    0.003464387    0.000585282
      2        1           0.000012830    0.001425707    0.000280394
      3        1           0.000800538   -0.001620174    0.002423719
      4        1           0.001411953   -0.003731861   -0.003066948
      5        7          -0.006683433    0.018157385    0.002334688
      6        6           0.009499934   -0.017695444   -0.002557135
 -------------------------------------------------------------------
 Cartesian Forces:  Max     0.018157385 RMS     0.006928479
 Leave Link  716 at Thu Oct 12 11:56:09 2023, MaxMem=   104857600 cpu:               0.0 elap:               0.0
 (Enter /opt/g16/l103.exe)

 GradGradGradGradGradGradGradGradGradGradGradGradGradGradGradGradGradGrad
 Berny optimization.
 FormGI is forming the generalized inverse of G from B-inverse, IUseBI=4.
 Internal  Forces:  Max     0.017871517 RMS     0.003975404
 Search for a saddle point.
 Step number   3 out of a maximum of   35
 All quantities printed in internal units (Hartrees-Bohrs-Radians)
 Swapping is turned off.
 Update second derivatives using D2CorX and points    2    3
 ITU=  0  0  0
     Eigenvalues ---   -0.07930  -0.00397   0.01994   0.02698   0.03631
     Eigenvalues ---    0.07618   0.08533   0.09493   0.39733   0.39801
     Eigenvalues ---    0.40374   1.27068
 Eigenvectors required to have negative eigenvalues:
                          R4        R5        A4        A3        D8
   1                   -0.73105   0.60131  -0.18444  -0.13978  -0.10555
                          A6        A7        D5        D9        A9
   1                    0.10308   0.10244  -0.06306  -0.06193   0.04677
 Eigenvalue     2 is  -3.97D-03 should be greater than     0.000000 Eigenvector:
                          D10       D6        D9        D2        D4
   1                   -0.55827  -0.51582  -0.48000  -0.21966  -0.20243
                          A6        A8        A7        A9        D8
   1                    0.17878  -0.16016  -0.13351   0.08382   0.07827
 RFO step:  Lambda0=3.144172309D-05 Lambda=-4.71460041D-03.
 Linear search not attempted -- option 19 set.
 Iteration  1 RMS(Cart)=  0.07054465 RMS(Int)=  0.05952025
 Iteration  2 RMS(Cart)=  0.04692251 RMS(Int)=  0.01057713
 Iteration  3 RMS(Cart)=  0.00255927 RMS(Int)=  0.00985172
 Iteration  4 RMS(Cart)=  0.00001252 RMS(Int)=  0.00985171
 Iteration  5 RMS(Cart)=  0.00000011 RMS(Int)=  0.00985171
 ITry= 1 IFail=0 DXMaxC= 3.13D-01 DCOld= 1.00D+10 DXMaxT= 3.00D-01 DXLimC= 3.00D+00 Rises=F
 Variable       Old X    -DE/DX   Delta X   Delta X   Delta X     New X
                                 (Linear)    (Quad)   (Total)
    R1        2.05468   0.00142   0.00000   0.00302   0.00302   2.05770
    R2        2.04781   0.00120   0.00000   0.00384   0.00384   2.05164
    R3        2.04970   0.00140   0.00000   0.00606   0.00606   2.05576
    R4        3.56882  -0.00189   0.00000   0.03544   0.03044   3.59926
    R5        3.36777   0.00086   0.00000   0.02830   0.02528   3.39305
    R6        2.27694  -0.01787   0.00000   0.00324   0.01557   2.29251
    A1        1.93131  -0.00048   0.00000   0.04191   0.04106   1.97237
    A2        1.90013   0.00109   0.00000   0.00541  -0.00387   1.89626
    A3        2.24823  -0.00269   0.00000  -0.01813  -0.04388   2.20435
    A4        1.61118   0.00247   0.00000   0.06881   0.09229   1.70347
    A5        1.99291  -0.00021   0.00000  -0.03151  -0.02593   1.96698
    A6        1.74437   0.00316   0.00000   0.13748   0.13904   1.88341
    A7        1.88774   0.00228   0.00000  -0.06739  -0.06840   1.81934
    A8        1.63283  -0.00092   0.00000  -0.16513  -0.15116   1.48167
    A9        2.10189  -0.00454   0.00000   0.01122  -0.01015   2.09174
    D1        2.16779   0.00006   0.00000   0.03648   0.03199   2.19978
    D2       -2.21515  -0.00065   0.00000  -0.20541  -0.19935  -2.41450
    D3       -1.96579  -0.00082   0.00000  -0.05820  -0.06139  -2.02718
    D4        2.05537  -0.00070   0.00000  -0.15703  -0.14543   1.90994
    D5        1.98135   0.00156   0.00000   0.05514   0.05453   2.03587
    D6        2.86994  -0.00056   0.00000  -0.37684  -0.37645   2.49348
    D7       -2.01267  -0.00005   0.00000   0.04838   0.05392  -1.95875
    D8       -2.33605   0.00238   0.00000   0.11334   0.11591  -2.22013
    D9       -1.44746   0.00026   0.00000  -0.31864  -0.31507  -1.76252
   D10        0.88859  -0.00213   0.00000  -0.43198  -0.43098   0.45761
         Item               Value     Threshold  Converged?
 Maximum Force            0.017872     0.000450     NO 
 RMS     Force            0.003975     0.000300     NO 
 Maximum Displacement     0.313320     0.001800     NO 
 RMS     Displacement     0.112121     0.001200     NO 
 Predicted change in Energy=-3.082363D-03
 GradGradGradGradGradGradGradGradGradGradGradGradGradGradGradGradGradGrad

 Leave Link  103 at Thu Oct 12 11:56:09 2023, MaxMem=   104857600 cpu:               0.0 elap:               0.0
 (Enter /opt/g16/l202.exe)
                          Input orientation:                          
 ---------------------------------------------------------------------
 Center     Atomic      Atomic             Coordinates (Angstroms)
 Number     Number       Type             X           Y           Z
 ---------------------------------------------------------------------
      1          6           0       -0.006880    0.077601    0.997480
      2          1           0       -0.101892    1.103168    1.350834
      3          1           0       -0.795288   -0.572408    1.364371
      4          1           0        0.987416   -0.285873    1.247884
      5          7           0        0.425298   -0.468788   -0.775187
      6          6           0       -0.443325    0.376190   -0.718406
 ---------------------------------------------------------------------
                    Distance matrix (angstroms):
                    1          2          3          4          5
     1  C    0.000000
     2  H    1.088887   0.000000
     3  H    1.085683   1.813432   0.000000
     4  H    1.087860   1.768227   1.809339   0.000000
     5  N    1.904644   2.696097   2.465416   2.107665   0.000000
     6  C    1.795524   2.219646   2.315529   2.520246   1.213143
                    6
     6  C    0.000000
 Stoichiometry    C2H3N
 Framework group  C1[X(C2H3N)]
 Deg. of freedom    12
 Full point group                 C1      NOp   1
 RotChk:  IX=2 Diff= 4.22D-01
 Largest Abelian subgroup         C1      NOp   1
 Largest concise Abelian subgroup C1      NOp   1
                         Standard orientation:                         
 ---------------------------------------------------------------------
 Center     Atomic      Atomic             Coordinates (Angstroms)
 Number     Number       Type             X           Y           Z
 ---------------------------------------------------------------------
      1          6           0       -0.991567   -0.040695   -0.006142
      2          1           0       -1.474702    0.684981    0.646276
      3          1           0       -1.312423    0.038682   -1.040288
      4          1           0       -1.145498   -1.035632    0.405980
      5          7           0        0.854568   -0.509112    0.000070
      6          6           0        0.650007    0.686653    0.004065
 ---------------------------------------------------------------------
 Rotational constants (GHZ):          40.3095923          15.0174220          11.7985993
 Leave Link  202 at Thu Oct 12 11:56:09 2023, MaxMem=   104857600 cpu:               0.0 elap:               0.0
 (Enter /opt/g16/l301.exe)
 Standard basis: STO-3G (5D, 7F)
 Ernie: Thresh=  0.10000D-02 Tol=  0.10000D-05 Strict=F.
 There are    18 symmetry adapted cartesian basis functions of A   symmetry.
 There are    18 symmetry adapted basis functions of A   symmetry.
    18 basis functions,    54 primitive gaussians,    18 cartesian basis functions
    11 alpha electrons       11 beta electrons
       nuclear repulsion energy        58.9374861142 Hartrees.
 IExCor=    0 DFT=F Ex=HF Corr=None ExCW=0 ScaHFX=  1.000000
 ScaDFX=  1.000000  1.000000  1.000000  1.000000 ScalE2=  1.000000  1.000000
 IRadAn=      5 IRanWt=     -1 IRanGd=            0 ICorTp=0 IEmpDi=  4
 NAtoms=    6 NActive=    6 NUniq=    6 SFac= 1.00D+00 NAtFMM=   60 NAOKFM=F Big=F
 Integral buffers will be    131072 words long.
 Raffenetti 1 integral format.
 Two-electron integral symmetry is turned on.
 Leave Link  301 at Thu Oct 12 11:56:09 2023, MaxMem=   104857600 cpu:               0.0 elap:               0.1
 (Enter /opt/g16/l402.exe)
 External calculation of energy and first derivatives.
 Running external command "python3 -u ../../src/gamesp.py R"
         input file       "/home/jh-li/scratch/g16/Gau-383182.EIn"
         output file      "/home/jh-li/scratch/g16/Gau-383182.EOu"
         message file     "/home/jh-li/scratch/g16/Gau-383182.EMs"
         fchk file        "/home/jh-li/scratch/g16/Gau-383182.EFC"
         mat. el file     "/home/jh-li/scratch/g16/Gau-383182.EUF"
>>> Running Amesp...
>>> Parsing Amesp output...
>>> 大师大法好！
 Recovered energy= -132.650786922     dipole=     -2.659200000000     -0.281300000000      0.057100000000
 Energy=    -132.650787     NIter=   0.
 Dipole moment=      -2.659200      -0.281300       0.057100
 Leave Link  402 at Thu Oct 12 11:56:11 2023, MaxMem=   104857600 cpu:               0.0 elap:               1.6
 (Enter /opt/g16/l716.exe)
 Dipole        =-2.65920000D+00-2.81300000D-01 5.71000000D-02
 ***** Axes restored to original set *****
 -------------------------------------------------------------------
 Center     Atomic                   Forces (Hartrees/Bohr)
 Number     Number              X              Y              Z
 -------------------------------------------------------------------
      1        6          -0.000322232    0.002244495   -0.004757847
      2        1          -0.001204101    0.000775410   -0.003292344
      3        1           0.000089611    0.000337285    0.000357673
      4        1          -0.000826663   -0.002885519    0.000783219
      5        7          -0.021466753    0.024060283   -0.001117781
      6        6           0.023730137   -0.024531955    0.008027080
 -------------------------------------------------------------------
 Cartesian Forces:  Max     0.024531955 RMS     0.011355078
 Leave Link  716 at Thu Oct 12 11:56:11 2023, MaxMem=   104857600 cpu:               0.0 elap:               0.0
 (Enter /opt/g16/l103.exe)

 GradGradGradGradGradGradGradGradGradGradGradGradGradGradGradGradGradGrad
 Berny optimization.
 FormGI is forming the generalized inverse of G from B-inverse, IUseBI=4.
 Internal  Forces:  Max     0.029460247 RMS     0.006553147
 Search for a saddle point.
 Step number   4 out of a maximum of   35
 All quantities printed in internal units (Hartrees-Bohrs-Radians)
 Swapping is turned off.
 Update second derivatives using D2CorX and points    3    4
 ITU=  0  0  0  0
     Eigenvalues ---   -0.07991   0.00052   0.02087   0.02659   0.03366
     Eigenvalues ---    0.07449   0.08172   0.09331   0.39732   0.39801
     Eigenvalues ---    0.40372   1.21929
 Eigenvectors required to have negative eigenvalues:
                          R4        R5        A4        A3        A7
   1                   -0.73091   0.59468  -0.18957  -0.12367   0.11421
                          D8        D10       A6        D5        A9
   1                   -0.11240   0.10316   0.09340  -0.07670   0.05532
 RFO step:  Lambda0=5.702429826D-04 Lambda=-2.49865285D-03.
 Linear search not attempted -- option 19 set.
 Iteration  1 RMS(Cart)=  0.07108929 RMS(Int)=  0.02345648
 Iteration  2 RMS(Cart)=  0.01798669 RMS(Int)=  0.00535440
 Iteration  3 RMS(Cart)=  0.00039948 RMS(Int)=  0.00532218
 Iteration  4 RMS(Cart)=  0.00000167 RMS(Int)=  0.00532218
 Iteration  5 RMS(Cart)=  0.00000001 RMS(Int)=  0.00532218
 ITry= 1 IFail=0 DXMaxC= 2.45D-01 DCOld= 1.00D+10 DXMaxT= 3.00D-01 DXLimC= 3.00D+00 Rises=F
 Variable       Old X    -DE/DX   Delta X   Delta X   Delta X     New X
                                 (Linear)    (Quad)   (Total)
    R1        2.05770  -0.00023   0.00000  -0.00162  -0.00162   2.05608
    R2        2.05164  -0.00015   0.00000   0.00197   0.00197   2.05362
    R3        2.05576   0.00039   0.00000   0.00334   0.00334   2.05910
    R4        3.59926   0.00122   0.00000  -0.13532  -0.13807   3.46119
    R5        3.39305  -0.01030   0.00000  -0.02681  -0.02900   3.36405
    R6        2.29251  -0.02946   0.00000  -0.00668   0.00067   2.29317
    A1        1.97237   0.00044   0.00000  -0.00327  -0.00275   1.96961
[...]
     4   1     0.38   0.21   0.00     0.00  -0.00   0.59     0.42   0.10  -0.00
     5   7     0.46  -0.12  -0.00    -0.00   0.00  -0.11    -0.28  -0.03   0.00
     6   6    -0.44  -0.23   0.00     0.00   0.00   0.12    -0.38  -0.03  -0.00
                      4                      5                      6
                      A                      A                      A
 Frequencies --   1001.9031              1003.5538              1351.0061
 Red. masses --      1.1744                 1.1757                 1.1067
 Frc consts  --      0.6946                 0.6977                 1.1901
 IR Inten    --      0.0000                 0.0000                 0.0000
  Atom  AN      X      Y      Z        X      Y      Z        X      Y      Z
     1   6     0.00  -0.01   0.11    -0.02   0.08   0.01    -0.09  -0.01  -0.00
     2   1    -0.63   0.03  -0.16    -0.40  -0.31   0.05     0.51   0.17   0.13
     3   1     0.69   0.02  -0.15    -0.30  -0.31  -0.08     0.51   0.17  -0.13
     4   1    -0.06   0.01  -0.25     0.72  -0.08  -0.02     0.61  -0.14  -0.00
     5   7     0.00   0.00  -0.03    -0.05  -0.01  -0.00    -0.02   0.00  -0.00
     6   6    -0.01   0.00  -0.04     0.07  -0.00  -0.00    -0.02  -0.01  -0.00
                      7                      8                      9
                      A                      A                      A
 Frequencies --   1493.8438              1507.4660              2019.9708
 Red. masses --      1.0672                 1.0563                12.7013
 Frc consts  --      1.4032                 1.4143                30.5343
 IR Inten    --      0.0000                 0.0000                 0.0000
  Atom  AN      X      Y      Z        X      Y      Z        X      Y      Z
     1   6     0.02  -0.07   0.00     0.00  -0.00  -0.07    -0.02   0.01  -0.00
     2   1    -0.25   0.49  -0.38    -0.23  -0.42   0.08    -0.00   0.07  -0.00
     3   1    -0.26   0.48   0.39     0.22   0.42   0.08    -0.00   0.07   0.00
     4   1     0.31  -0.10  -0.00     0.00  -0.00   0.73     0.06  -0.03   0.00
     5   7    -0.01   0.00  -0.00    -0.00   0.00  -0.00     0.08  -0.65   0.00
     6   6     0.01  -0.01   0.00    -0.00  -0.00  -0.01    -0.08   0.74  -0.00
                     10                     11                     12
                      A                      A                      A
 Frequencies --   3113.4702              3204.3509              3243.9228
 Red. masses --      1.0257                 1.1038                 1.1139
 Frc consts  --      5.8581                 6.6775                 6.9063
 IR Inten    --      0.0000                 0.0000                 0.0000
  Atom  AN      X      Y      Z        X      Y      Z        X      Y      Z
     1   6    -0.04  -0.01  -0.00     0.01  -0.09   0.00     0.00  -0.00  -0.10
     2   1     0.17  -0.24  -0.45    -0.15   0.19   0.40    -0.23   0.31   0.59
     3   1     0.17  -0.24   0.44    -0.15   0.19  -0.40     0.23  -0.31   0.59
     4   1     0.12   0.65   0.00     0.15   0.73   0.00     0.00   0.00  -0.02
     5   7     0.00  -0.00  -0.00     0.00  -0.00  -0.00    -0.00  -0.00   0.00
     6   6    -0.00   0.00   0.00    -0.00  -0.00   0.00    -0.00   0.00   0.00

 -------------------
 - Thermochemistry -
 -------------------
 Temperature   298.150 Kelvin.  Pressure   1.00000 Atm.
 Atom     1 has atomic number  6 and mass  12.00000
 Atom     2 has atomic number  1 and mass   1.00783
 Atom     3 has atomic number  1 and mass   1.00783
 Atom     4 has atomic number  1 and mass   1.00783
 Atom     5 has atomic number  7 and mass  14.00307
 Atom     6 has atomic number  6 and mass  12.00000
 Molecular mass:    41.02655 amu.
 Principal axes and moments of inertia in atomic units:
                           1         2         3
     Eigenvalues --    44.56812 114.15638 146.85252
           X            0.99998   0.00560   0.00001
           Y           -0.00560   0.99998   0.00001
           Z           -0.00001  -0.00001   1.00000
 This molecule is an asymmetric top.
 Rotational symmetry number  1.
 Rotational temperatures (Kelvin)      1.94341     0.75873     0.58980
 Rotational constants (GHZ):          40.49399    15.80938    12.28948
    1 imaginary frequencies ignored.
 Zero-point vibrational energy     112245.0 (Joules/Mol)
                                   26.82719 (Kcal/Mol)
 Warning -- explicit consideration of   2 degrees of freedom as
           vibrations may cause significant error
 Vibrational temperatures:    300.61   888.40  1441.52  1443.89  1943.80
          (Kelvin)           2149.31  2168.91  2906.29  4479.59  4610.35
                             4667.28
 
 Zero-point correction=                           0.042752 (Hartree/Particle)
 Thermal correction to Energy=                    0.046374
 Thermal correction to Enthalpy=                  0.047318
 Thermal correction to Gibbs Free Energy=         0.018332
 Sum of electronic and zero-point Energies=           -132.609766
 Sum of electronic and thermal Energies=              -132.606143
 Sum of electronic and thermal Enthalpies=            -132.605199
 Sum of electronic and thermal Free Energies=         -132.634186
 
                     E (Thermal)             CV                S
                      KCal/Mol        Cal/Mol-Kelvin    Cal/Mol-Kelvin
 Total                   29.100              9.818             61.008
 Electronic               0.000              0.000              0.000
 Translational            0.889              2.981             37.062
 Rotational               0.889              2.981             21.240
 Vibrational             27.323              3.856              2.705
 Vibration     1          0.642              1.827              2.053
 Vibration     2          0.977              0.995              0.421
                       Q            Log10(Q)             Ln(Q)
 Total Bot       0.369914D-08         -8.431900        -19.415166
 Total V=0       0.170831D+12         11.232567         25.863942
 Vib (Bot)       0.366016D-19        -19.436500        -44.754194
 Vib (Bot)    1  0.951024D+00         -0.021808         -0.050216
 Vib (Bot)    2  0.237470D+00         -0.624392         -1.437715
 Vib (V=0)       0.169031D+01          0.227967          0.524914
 Vib (V=0)    1  0.157445D+01          0.197129          0.453907
 Vib (V=0)    2  0.105353D+01          0.022646          0.052143
 Electronic      0.100000D+01          0.000000          0.000000
 Translational   0.103288D+08          7.014051         16.150450
 Rotational      0.978472D+04          3.990549          9.188578
 ***** Axes restored to original set *****
 -------------------------------------------------------------------
 Center     Atomic                   Forces (Hartrees/Bohr)
 Number     Number              X              Y              Z
 -------------------------------------------------------------------
      1        6          -0.000027533   -0.000022259   -0.000047198
      2        1          -0.000012352    0.000007432   -0.000010956
      3        1          -0.000008360    0.000003251    0.000001797
      4        1          -0.000006907    0.000024531    0.000053943
      5        7          -0.000078637    0.000025619    0.000014693
      6        6           0.000133789   -0.000038573   -0.000012279
 -------------------------------------------------------------------
 Cartesian Forces:  Max     0.000133789 RMS     0.000043491
 Force constants in Cartesian coordinates: 
                1             2             3             4             5 
      1  0.533276D+00
      2  0.347641D-01  0.591336D+00
      3 -0.245516D-01 -0.742130D-02  0.257936D+00
      4 -0.515584D-01  0.705033D-02  0.100676D-01  0.482270D-01
      5  0.680893D-02 -0.326209D+00 -0.731104D-01 -0.108353D-01  0.340969D+00
      6  0.117446D-01 -0.780110D-01 -0.569671D-01 -0.271686D-02  0.766646D-01
      7 -0.220838D+00 -0.123536D+00  0.820905D-01  0.293834D-02  0.355645D-02
      8 -0.122932D+00 -0.142177D+00  0.502652D-01 -0.223217D-01 -0.109709D-01
      9  0.870255D-01  0.520518D-01 -0.715392D-01 -0.883120D-02 -0.352224D-02
     10 -0.265452D+00  0.100619D+00 -0.632713D-01  0.761581D-03 -0.970988D-03
     11  0.998174D-01 -0.975342D-01  0.305865D-01  0.278523D-01 -0.997593D-02
     12 -0.780138D-01  0.377104D-01 -0.518943D-01  0.795361D-02 -0.241842D-02
     13 -0.100339D-01 -0.348571D-02  0.179920D-01 -0.230263D-02 -0.104857D-02
     14 -0.644271D-02 -0.165585D-01 -0.932812D-02  0.295493D-02  0.377294D-02
     15 -0.355589D-01  0.163803D-01 -0.307241D-01 -0.206110D-02 -0.984857D-03
     16  0.149497D-01 -0.155022D-01 -0.222035D-01  0.196639D-02  0.254443D-02
     17 -0.121056D-01 -0.867790D-02  0.894403D-02 -0.458778D-02  0.234949D-02
     18  0.394359D-01 -0.207568D-01 -0.468030D-01 -0.446474D-02  0.341634D-02
                6             7             8             9            10 
      6  0.692394D-01
      7 -0.292835D-02  0.232872D+00
      8  0.116196D-01  0.131174D+00  0.140783D+00
      9  0.588499D-02 -0.809424D-01 -0.574348D-01  0.846830D-01
     10  0.163777D-02 -0.188589D-01  0.115839D-01 -0.573142D-02  0.283124D+00
     11  0.854388D-02 -0.160680D-01  0.867398D-02 -0.624355D-02 -0.110996D+00
     12  0.442951D-02  0.932662D-02 -0.564881D-02  0.537019D-02  0.677140D-01
     13 -0.296229D-02  0.640014D-03  0.562140D-02  0.340486D-02 -0.167258D-02
     14 -0.724268D-02  0.143258D-02  0.174239D-02  0.676094D-02  0.179407D-02
     15  0.215003D-02 -0.535626D-03  0.205689D-02  0.134665D-02  0.579117D-02
     16 -0.485106D-02  0.312975D-02 -0.313782D-02  0.495399D-02  0.203367D-02
     17 -0.114708D-01  0.337398D-02  0.202741D-02  0.837935D-02 -0.199214D-02
     18 -0.246997D-01 -0.706342D-02 -0.850176D-03 -0.257008D-01 -0.608649D-02
               11            12            13            14            15 
     11  0.985914D-01
     12 -0.315440D-01  0.698360D-01
     13  0.955105D-03 -0.945275D-02  0.822118D+00
     14  0.651833D-03  0.248273D-02 -0.394331D+00  0.198293D+00
     15 -0.486890D-02 -0.365094D-01 -0.431773D-01  0.213514D-01  0.183039D-01
     16 -0.152258D-02  0.251502D-02 -0.808666D+00  0.394544D+00  0.755085D-01
     17 -0.416387D-03 -0.603805D-03  0.392239D+00 -0.187890D+00 -0.339185D-01
     18  0.349936D-02  0.876907D-02  0.341517D-01 -0.140026D-01  0.454281D-01
               16            17            18 
     16  0.786586D+00
     17 -0.376925D+00  0.192606D+00
     18 -0.559225D-01  0.286697D-01  0.430094D-01
 Leave Link  716 at Thu Oct 12 11:56:38 2023, MaxMem=   104857600 cpu:               0.1 elap:               0.1
 (Enter /opt/g16/l103.exe)

 GradGradGradGradGradGradGradGradGradGradGradGradGradGradGradGradGradGrad
 Berny optimization.
 Search for a local minimum.
 Step number   1 out of a maximum of    2
 All quantities printed in internal units (Hartrees-Bohrs-Radians)
 Second derivative matrix not updated -- analytic derivatives used.
 The second derivative matrix:
                          X1        Y1        Z1        X2        Y2
           X1           0.53328
           Y1           0.03476   0.59134
           Z1          -0.02455  -0.00742   0.25794
           X2          -0.05156   0.00705   0.01007   0.04823
           Y2           0.00681  -0.32621  -0.07311  -0.01084   0.34097
           Z2           0.01174  -0.07801  -0.05697  -0.00272   0.07666
           X3          -0.22084  -0.12354   0.08209   0.00294   0.00356
           Y3          -0.12293  -0.14218   0.05027  -0.02232  -0.01097
           Z3           0.08703   0.05205  -0.07154  -0.00883  -0.00352
           X4          -0.26545   0.10062  -0.06327   0.00076  -0.00097
           Y4           0.09982  -0.09753   0.03059   0.02785  -0.00998
           Z4          -0.07801   0.03771  -0.05189   0.00795  -0.00242
           X5          -0.01003  -0.00349   0.01799  -0.00230  -0.00105
           Y5          -0.00644  -0.01656  -0.00933   0.00295   0.00377
           Z5          -0.03556   0.01638  -0.03072  -0.00206  -0.00098
           X6           0.01495  -0.01550  -0.02220   0.00197   0.00254
           Y6          -0.01211  -0.00868   0.00894  -0.00459   0.00235
           Z6           0.03944  -0.02076  -0.04680  -0.00446   0.00342
                          Z2        X3        Y3        Z3        X4
           Z2           0.06924
           X3          -0.00293   0.23287
           Y3           0.01162   0.13117   0.14078
           Z3           0.00588  -0.08094  -0.05743   0.08468
           X4           0.00164  -0.01886   0.01158  -0.00573   0.28312
           Y4           0.00854  -0.01607   0.00867  -0.00624  -0.11100
           Z4           0.00443   0.00933  -0.00565   0.00537   0.06771
           X5          -0.00296   0.00064   0.00562   0.00340  -0.00167
           Y5          -0.00724   0.00143   0.00174   0.00676   0.00179
           Z5           0.00215  -0.00054   0.00206   0.00135   0.00579
           X6          -0.00485   0.00313  -0.00314   0.00495   0.00203
           Y6          -0.01147   0.00337   0.00203   0.00838  -0.00199
           Z6          -0.02470  -0.00706  -0.00085  -0.02570  -0.00609
                          Y4        Z4        X5        Y5        Z5
           Y4           0.09859
           Z4          -0.03154   0.06984
           X5           0.00096  -0.00945   0.82212
           Y5           0.00065   0.00248  -0.39433   0.19829
           Z5          -0.00487  -0.03651  -0.04318   0.02135   0.01830
           X6          -0.00152   0.00252  -0.80867   0.39454   0.07551
           Y6          -0.00042  -0.00060   0.39224  -0.18789  -0.03392
           Z6           0.00350   0.00877   0.03415  -0.01400   0.04543
                          X6        Y6        Z6
           X6           0.78659
           Y6          -0.37692   0.19261
           Z6          -0.05592   0.02867   0.04301
 ITU=  0
     Eigenvalues ---   -0.07314   0.00543   0.05902   0.06929   0.08826
     Eigenvalues ---    0.10499   0.10966   0.17461   0.47341   0.74672
     Eigenvalues ---    0.80355   1.99568
 Eigenvalue     1 is  -7.31D-02 should be greater than     0.000000 Eigenvector:
                          Z5        Z6        X1        X6        Z4
   1                    0.58157  -0.53075   0.27139  -0.25278   0.23640
                          Z3        Z2        X5        X4        Y1
   1                   -0.17111  -0.16670  -0.16035   0.15759  -0.13350
 Angle between quadratic step and forces=  78.66 degrees.
 Linear search not attempted -- first point.
 B after Tr=    -0.000067   -0.000051   -0.000041
         Rot=    1.000000    0.000005   -0.000003    0.000261 Ang=   0.03 deg.
 Variable       Old X    -DE/DX   Delta X   Delta X   Delta X     New X
                                 (Linear)    (Quad)   (Total)
    X1        0.00929  -0.00003   0.00000  -0.00001  -0.00000   0.00929
    Y1        0.12042  -0.00002   0.00000  -0.00015  -0.00019   0.12023
    Z1        1.85684  -0.00005   0.00000  -0.00014  -0.00018   1.85666
    X2       -0.06031  -0.00001   0.00000  -0.00191  -0.00087  -0.06118
    Y2        2.09471   0.00001   0.00000  -0.00024  -0.00023   2.09448
    Z2        2.42048  -0.00001   0.00000   0.00004  -0.00002   2.42046
    X3       -1.55527  -0.00001   0.00000   0.00108   0.00052  -1.55475
    Y3       -0.99004   0.00000   0.00000  -0.00162  -0.00084  -0.99087
    Z3        2.59140   0.00000   0.00000  -0.00005  -0.00007   2.59133
    X4        1.80555  -0.00001   0.00000   0.00092   0.00050   1.80605
    Y4       -0.72008   0.00002   0.00000   0.00213   0.00116  -0.71891
    Z4        2.41081   0.00005   0.00000   0.00042   0.00038   2.41119
    X5        0.98155  -0.00008   0.00000  -0.00094  -0.00130   0.98025
    Y5       -0.52768   0.00003   0.00000  -0.00178  -0.00236  -0.53004
    Z5       -1.39833   0.00001   0.00000  -0.00005  -0.00010  -1.39843
    X6       -1.05736   0.00013   0.00000   0.00099   0.00115  -1.05621
    Y6        0.45709  -0.00004   0.00000   0.00196   0.00245   0.45954
    Z6       -1.32957  -0.00001   0.00000   0.00003  -0.00001  -1.32958
         Item               Value     Threshold  Converged?
 Maximum Force            0.000134     0.000450     YES
 RMS     Force            0.000043     0.000300     YES
 Maximum Displacement     0.002446     0.001800     NO 
 RMS     Displacement     0.001004     0.001200     YES
 Predicted change in Energy=-7.530624D-08
 GradGradGradGradGradGradGradGradGradGradGradGradGradGradGradGradGradGrad

 Leave Link  103 at Thu Oct 12 11:56:38 2023, MaxMem=   104857600 cpu:               0.0 elap:               0.0
 (Enter /opt/g16/l9999.exe)
 Unable to Open any file for archive entry.
 1\1\GINC-DESKTOP-1D9QDE1\Freq\External='python3 -u ../../src/gamesp.py
 '\ZDO\C2H3N1\JH-LI\12-Oct-2023\0\\#p external="python3 -u ../../src/ga
 mesp.py" freq geom=allcheck\\Title Card Required\\0,1\C,0.0049159776,0
 .063724161,0.9825984987\H,-0.0319126159,1.1084744561,1.2808621622\H,-0
 .8230117558,-0.5239040293,1.3713092138\H,0.955456426,-0.3810477971,1.2
 757465916\N,0.5194114286,-0.2792386764,-0.7399652781\C,-0.5595306505,0
 .2418819457,-0.7035763383\\Version=ES64L-G16RevC.01\HF=-132.6525176\RM
 SD=0.000e+00\RMSF=4.349e-05\ZeroPoint=0.0427518\Thermal=0.0463742\ETot
 =-132.6061434\HTot=-132.6051992\GTot=-132.6341861\Dipole=0.1479948,0.0
 742263,2.6430768\PG=C01 [X(C2H3N1)]\NImag=1\\0.53327607,0.03476406,0.5
 9133617,-0.02455161,-0.00742130,0.25793584,-0.05155840,0.00705033,0.01
 006764,0.04822699,0.00680893,-0.32620883,-0.07311043,-0.01083526,0.340
 96899,0.01174460,-0.07801103,-0.05696706,-0.00271686,0.07666461,0.0692
 3940,-0.22083807,-0.12353581,0.08209054,0.00293834,0.00355645,-0.00292
 835,0.23287190,-0.12293167,-0.14217736,0.05026516,-0.02232170,-0.01097
 091,0.01161960,0.13117414,0.14078309,0.08702554,0.05205181,-0.07153918
 ,-0.00883120,-0.00352224,0.00588499,-0.08094245,-0.05743475,0.08468298
 ,-0.26545183,0.10061909,-0.06327135,0.00076158,-0.00097099,0.00163777,
 -0.01885887,0.01158389,-0.00573142,0.28312387,0.09981745,-0.09753421,0
 .03058648,0.02785232,-0.00997593,0.00854388,-0.01606797,0.00867398,-0.
 00624355,-0.11099552,0.09859145,-0.07801380,0.03771043,-0.05189425,0.0
 0795361,-0.00241842,0.00442951,0.00932662,-0.00564881,0.00537019,0.067
 71400,-0.03154402,0.06983604,-0.01003388,-0.00348571,0.01799198,-0.002
 30263,-0.00104857,-0.00296229,0.00064001,0.00562140,0.00340486,-0.0016
 7258,0.00095511,-0.00945275,0.82211758,-0.00644271,-0.01655848,-0.0093
 2812,0.00295493,0.00377294,-0.00724268,0.00143258,0.00174239,0.0067609
 4,0.00179407,0.00065183,0.00248273,-0.39433059,0.19829303,-0.03555886,
 0.01638032,-0.03072412,-0.00206110,-0.00098486,0.00215003,-0.00053563,
 0.00205689,0.00134665,0.00579117,-0.00486890,-0.03650938,-0.04317728,0
 .02135136,0.01830395,0.01494968,-0.01550217,-0.02220353,0.00196639,0.0
 0254443,-0.00485106,0.00312975,-0.00313782,0.00495399,0.00203367,-0.00
 152258,0.00251502,-0.80866574,0.39454354,0.07550851,0.78658607,-0.0121
 0564,-0.00867790,0.00894403,-0.00458778,0.00234949,-0.01147081,0.00337
 398,0.00202741,0.00837935,-0.00199214,-0.00041639,-0.00060381,0.392239
 16,-0.18789035,-0.03391852,-0.37692465,0.19260613,0.03943589,-0.020756
 81,-0.04680302,-0.00446474,0.00341634,-0.02469965,-0.00706342,-0.00085
 018,-0.02570079,-0.00608649,0.00349936,0.00876907,0.03415174,-0.014002
 60,0.04542806,-0.05592248,0.02866969,0.04300936\\0.00002753,0.00002226
 ,0.00004720,0.00001235,-0.00000743,0.00001096,0.00000836,-0.00000325,-
 0.00000180,0.00000691,-0.00002453,-0.00005394,0.00007864,-0.00002562,-
 0.00001469,-0.00013379,0.00003857,0.00001228\\\@
 The archive entry for this job was punched.


 TELEVISION IS CALLED A MEDIUM BECAUSE IT ISN'T
 RARE, AND IT ISN'T WELL DONE.
 Job cpu time:       0 days  0 hours  0 minutes  0.4 seconds.
 Elapsed time:       0 days  0 hours  0 minutes  9.0 seconds.
 File lengths (MBytes):  RWF=      6 Int=      0 D2E=      0 Chk=      1 Scr=      1
 Normal termination of Gaussian 16 at Thu Oct 12 11:56:38 2023.
