 Entering Gaussian System, Link 0=g16
 Initial command:
 /opt/g16/l1.exe "/home/jh-li/scratch/g16/Gau-376495.inp" -scrdir="/home/jh-li/scratch/g16/"
 Entering Link 1 = /opt/g16/l1.exe PID=    376502.
  
 Copyright (c) 1988-2019, Gaussian, Inc.  All Rights Reserved.
  
 This is part of the Gaussian(R) 16 program.  It is based on
 the Gaussian(R) 09 system (copyright 2009, Gaussian, Inc.),
 the Gaussian(R) 03 system (copyright 2003, Gaussian, Inc.),
 the Gaussian(R) 98 system (copyright 1998, Gaussian, Inc.),
 the Gaussian(R) 94 system (copyright 1995, Gaussian, Inc.),
 the Gaussian 92(TM) system (copyright 1992, Gaussian, Inc.),
 the Gaussian 90(TM) system (copyright 1990, Gaussian, Inc.),
 the Gaussian 88(TM) system (copyright 1988, Gaussian, Inc.),
 the Gaussian 86(TM) system (copyright 1986, Carnegie Mellon
 University), and the Gaussian 82(TM) system (copyright 1983,
 Carnegie Mellon University). Gaussian is a federally registered
 trademark of Gaussian, Inc.
  
 This software contains proprietary and confidential information,
 including trade secrets, belonging to Gaussian, Inc.
  
 This software is provided under written license and may be
 used, copied, transmitted, or stored only in accord with that
 written license.
  
 The following legend is applicable only to US Government
 contracts under FAR:
  
                    RESTRICTED RIGHTS LEGEND
  
 Use, reproduction and disclosure by the US Government is
 subject to restrictions as set forth in subparagraphs (a)
 and (c) of the Commercial Computer Software - Restricted
 Rights clause in FAR 52.227-19.
  
 Gaussian, Inc.
 340 Quinnipiac St., Bldg. 40, Wallingford CT 06492
  
  
 ---------------------------------------------------------------
 Warning -- This program may not be used in any manner that
 competes with the business of Gaussian, Inc. or will provide
 assistance to any competitor of Gaussian, Inc.  The licensee
 of this program is prohibited from giving any competitor of
 Gaussian, Inc. access to this program.  By using this program,
 the user acknowledges that Gaussian, Inc. is engaged in the
 business of creating and licensing software in the field of
 computational chemistry and represents and warrants to the
 licensee that it is not a competitor of Gaussian, Inc. and that
 it will not use this program in any manner prohibited above.
 ---------------------------------------------------------------
  

 Cite this work as:
 Gaussian 16, Revision C.01,
 M. J. Frisch, G. W. Trucks, H. B. Schlegel, G. E. Scuseria, 
 M. A. Robb, J. R. Cheeseman, G. Scalmani, V. Barone, 
 G. A. Petersson, H. Nakatsuji, X. Li, M. Caricato, A. V. Marenich, 
 J. Bloino, B. G. Janesko, R. Gomperts, B. Mennucci, H. P. Hratchian, 
 J. V. Ortiz, A. F. Izmaylov, J. L. Sonnenberg, D. Williams-Young, 
 F. Ding, F. Lipparini, F. Egidi, J. Goings, B. Peng, A. Petrone, 
 T. Henderson, D. Ranasinghe, V. G. Zakrzewski, J. Gao, N. Rega, 
 G. Zheng, W. Liang, M. Hada, M. Ehara, K. Toyota, R. Fukuda, 
 J. Hasegawa, M. Ishida, T. Nakajima, Y. Honda, O. Kitao, H. Nakai, 
 T. Vreven, K. Throssell, J. A. Montgomery, Jr., J. E. Peralta, 
 F. Ogliaro, M. J. Bearpark, J. J. Heyd, E. N. Brothers, K. N. Kudin, 
 V. N. Staroverov, T. A. Keith, R. Kobayashi, J. Normand, 
 K. Raghavachari, A. P. Rendell, J. C. Burant, S. S. Iyengar, 
 J. Tomasi, M. Cossi, J. M. Millam, M. Klene, C. Adamo, R. Cammi, 
 J. W. Ochterski, R. L. Martin, K. Morokuma, O. Farkas, 
 J. B. Foresman, and D. J. Fox, Gaussian, Inc., Wallingford CT, 2019.
 
 ******************************************
 Gaussian 16:  ES64L-G16RevC.01  3-Jul-2019
                12-Oct-2023 
 ******************************************
 %nproc=1
 Will use up to    1 processors via shared memory.
 %oldchk=CH3CN-ts-opt-freq.chk
 Copying data from "CH3CN-ts-opt-freq.chk" to current chk file "/home/jh-li/scratch/g16/Gau-376502.chk"
 IOpt=  2 FromEx=T IUOpen= 4 IOptOp= 5 NList=   0 IFRang= 0 IUIn= 4 IUOut= 2.
 ---------------------------------------------------------------------
 #p external="python3 -u ../../src/gamesp.py" irc=(rcfc) geom=allcheck
 ---------------------------------------------------------------------
 1/6=10,10=5,18=10,26=1,29=7,38=1,44=3,172=1/1,23;
 2/12=2,29=1,40=1/2;
 3/11=9,14=-4,25=1,30=1,41=9900000,43=2,71=2,140=1/1;
 4/20=17,22=1002,24=3,113=1,114=1/2;
 6/7=2,8=2,9=2,10=2/1;
 7/44=-1/16;
 1/6=10,18=10,26=1,44=3/23(2);
 2/29=1/2;
 99/5=20/99;
 2/29=1/2;
 3/11=9,14=-2,25=1,30=1,41=9900000,43=2,71=2,140=1/1;
 4/16=2,20=17,22=1002,24=3,113=1,114=1/2;
 7/44=-1/16;
 1/6=10,18=10,26=1,44=3/23(-4);
 2/29=1/2;
 6/7=2,8=2,9=2,10=2/1;
 99/5=20,9=10/99;
 Leave Link    1 at Thu Oct 12 11:38:08 2023, MaxMem=   104857600 cpu:               0.0 elap:               0.0
 (Enter /opt/g16/l101.exe)
 Structure from the checkpoint file:  "/home/jh-li/scratch/g16/Gau-376502.chk"
 -------------------
 Title Card Required
 -------------------
 Charge =  0 Multiplicity = 1
 No Z-Matrix found in chk file; cartesian coordinates used.
  C                                                 0.004915977564      0.063724161046      0.982598498717
  H                                                -0.031912615889      1.108474456086      1.280862162246
  H                                                -0.823011755826     -0.523904029345      1.371309213845
  H                                                 0.955456425991     -0.381047797117      1.275746591636
  N                                                 0.519411428639     -0.279238676351     -0.739965278149
  C                                                -0.559530650480      0.241881945681     -0.703576338296
 Recover connectivity data from disk.
 ITRead=  0  0  0  0  0  0
 MicOpt= -1 -1 -1 -1 -1 -1
 NAtoms=      6 NQM=        6 NQMF=       0 NMMI=      0 NMMIF=      0
                NMic=       0 NMicF=      0.
                    Isotopes and Nuclear Properties:
 (Nuclear quadrupole moments (NQMom) in fm**2, nuclear magnetic moments (NMagM)
  in nuclear magnetons)

  Atom         1           2           3           4           5           6
 IAtWgt=          12           1           1           1          14          12
 AtmWgt=  12.0000000   1.0078250   1.0078250   1.0078250  14.0030740  12.0000000
 NucSpn=           0           1           1           1           2           0
 AtZEff=   3.6000000   1.0000000   1.0000000   1.0000000   4.5500000   3.6000000
 NQMom=    0.0000000   0.0000000   0.0000000   0.0000000   2.0440000   0.0000000
 NMagM=    0.0000000   2.7928460   2.7928460   2.7928460   0.4037610   0.0000000
 AtZNuc=   6.0000000   1.0000000   1.0000000   1.0000000   7.0000000   6.0000000
 Leave Link  101 at Thu Oct 12 11:38:08 2023, MaxMem=   104857600 cpu:               0.2 elap:               0.2
 (Enter /opt/g16/l123.exe)
 IRC-IRC-IRC-IRC-IRC-IRC-IRC-IRC-IRC-IRC-IRC-IRC-IRC-IRC-IRC-IRC-IRC-IRC
 ------------------------------------------------------------------------
 INPUT DATA FOR L123
 ------------------------------------------------------------------------
 GENERAL PARAMETERS:
 Follow reaction path in both directions.
 Maximum points per path      =  10
 Step size                    =   0.100 bohr
 Integration scheme           = HPC                                 
    Redo corrector integration= Yes                                 
    DWI Weight Power          =  2
    DWI will use Hessian update vectors when possible.
    Max correction cycles     =  10
 Initial Hessian              = ReadFC from chk
 Hessian evaluation           = All updating
 Hessian updating method      = Bofill                              
 ------------------------------------------------------------------------
          ******** Start new reaction path calculation ********
 RCFC Option Requested - Data Read From Chk File:
 "/home/jh-li/scratch/g16/Gau-376502.chk"
   Energy From Chk =   -132.6525176

 Current Structure is TS -> form Hessian eigenvectors.
                            Recovering Hessian eigenvectors from chk file.
 Supplied step size of   0.1000 bohr.
    Integration on MW PES will use step size of   0.2820 sqrt(amu)*bohr.
 Point Number:   0          Path Number:   1
 Calculating another point on the path.
 Point Number  1 in FORWARD path direction.
 Using LQA Reaction Path Following.
 IRC-IRC-IRC-IRC-IRC-IRC-IRC-IRC-IRC-IRC-IRC-IRC-IRC-IRC-IRC-IRC-IRC-IRC
 Leave Link  123 at Thu Oct 12 11:38:08 2023, MaxMem=   104857600 cpu:               0.0 elap:               0.0
 (Enter /opt/g16/l202.exe)
                          Input orientation:                          
 ---------------------------------------------------------------------
 Center     Atomic      Atomic             Coordinates (Angstroms)
 Number     Number       Type             X           Y           Z
 ---------------------------------------------------------------------
      1          6           0       -0.028241    0.072340    1.060360
      2          1           0       -0.057146    1.114070    1.370291
      3          1           0       -0.848197   -0.518737    1.460917
      4          1           0        0.928462   -0.376551    1.329375
      5          7           0        0.508140   -0.282692   -0.689604
      6          6           0       -0.566661    0.239165   -0.605074
 ---------------------------------------------------------------------
                    Distance matrix (angstroms):
                    1          2          3          4          5
     1  C    0.000000
     2  H    1.087242   0.000000
     3  H    1.087265   1.816599   0.000000
     4  H    1.090483   1.787470   1.787187   0.000000
     5  N    1.864436   2.552187   2.553450   2.064402   0.000000
     6  C    1.758237   2.219715   2.218558   2.521228   1.197780
                    6
     6  C    0.000000
 Symmetry turned off by external request.
 Stoichiometry    C2H3N
 Framework group  C1[X(C2H3N)]
 Deg. of freedom    12
 Full point group                 C1      NOp   1
 Rotational constants (GHZ):          41.0135520          15.6372547          12.2322495
 Leave Link  202 at Thu Oct 12 11:38:08 2023, MaxMem=   104857600 cpu:               0.0 elap:               0.0
 (Enter /opt/g16/l301.exe)
 Standard basis: STO-3G (5D, 7F)
 Ernie: Thresh=  0.10000D-02 Tol=  0.10000D-05 Strict=F.
    18 basis functions,    54 primitive gaussians,    18 cartesian basis functions
    11 alpha electrons       11 beta electrons
       nuclear repulsion energy        59.7640600750 Hartrees.
 IExCor=    0 DFT=F Ex=HF Corr=None ExCW=0 ScaHFX=  1.000000
 ScaDFX=  1.000000  1.000000  1.000000  1.000000 ScalE2=  1.000000  1.000000
 IRadAn=      5 IRanWt=     -1 IRanGd=            0 ICorTp=0 IEmpDi=  4
 NAtoms=    6 NActive=    6 NUniq=    6 SFac= 1.00D+00 NAtFMM=   60 NAOKFM=F Big=F
 Integral buffers will be    131072 words long.
 Raffenetti 1 integral format.
 Two-electron integral symmetry is turned off.
 Leave Link  301 at Thu Oct 12 11:38:08 2023, MaxMem=   104857600 cpu:               0.0 elap:               0.1
 (Enter /opt/g16/l402.exe)
 External calculation of energy and first derivatives.
 Running external command "python3 -u ../../src/gamesp.py R"
         input file       "/home/jh-li/scratch/g16/Gau-376502.EIn"
         output file      "/home/jh-li/scratch/g16/Gau-376502.EOu"
         message file     "/home/jh-li/scratch/g16/Gau-376502.EMs"
         fchk file        "/home/jh-li/scratch/g16/Gau-376502.EFC"
         mat. el file     "/home/jh-li/scratch/g16/Gau-376502.EUF"
>>> Running Amesp...
>>> Parsing Amesp output...
>>> 大师大法好！
 Recovered energy= -132.656984781     dipole=      0.102700000000      0.094500000000      2.612700000000
 NRF= 0 NRA=   0 NVA=   0 HaveQM=F NVQ=       0
 Convergence limit is  0.750E-04 MaxStp= 10000 StMxLn= 3.00D-04 StpMin= 1.00D-06.
 Convergence criteria             0.00011250 0.00007500 0.00045000 0.00030000
  Step  NS  ND Rises OKQ   Scale  Max. Force  RMS Force Max. Disp.  RMS Disp.     Energy   Flag
     1   0   0   F    T  1.00D+00 0.00000000 0.00000000 0.00000000 0.00000000 -132.6569848 ====
 Running external command "python3 -u ../../src/gamesp.py R"
         input file       "/home/jh-li/scratch/g16/Gau-376502.EIn"
         output file      "/home/jh-li/scratch/g16/Gau-376502.EOu"
         message file     "/home/jh-li/scratch/g16/Gau-376502.EMs"
         fchk file        "/home/jh-li/scratch/g16/Gau-376502.EFC"
         mat. el file     "/home/jh-li/scratch/g16/Gau-376502.EUF"
>>> Running Amesp...
>>> Parsing Amesp output...
>>> 大师大法好！
 Recovered energy= -132.656984781     dipole=      0.102700000000      0.094500000000      2.612700000000
 Energy=    -132.656985     NIter=   0.
 Dipole moment=       0.102700       0.094500       2.612700
 Leave Link  402 at Thu Oct 12 11:38:12 2023, MaxMem=   104857600 cpu:               0.0 elap:               4.1
 (Enter /opt/g16/l601.exe)
 Leave Link  601 at Thu Oct 12 11:38:12 2023, MaxMem=   104857600 cpu:               0.0 elap:               0.0
 (Enter /opt/g16/l716.exe)
 Dipole        = 1.02700000D-01 9.45000000D-02 2.61270000D+00
 -------------------------------------------------------------------
 Center     Atomic                   Forces (Hartrees/Bohr)
 Number     Number              X              Y              Z
 -------------------------------------------------------------------
      1        6          -0.002642835    0.001325604    0.001363242
      2        1          -0.000060754   -0.000538892   -0.000100564
      3        1           0.000372439    0.000411133   -0.000067595
      4        1          -0.000779036    0.000371627   -0.000507079
      5        7          -0.000694236    0.000023755   -0.004771825
      6        6           0.003804420   -0.001593228    0.004083822
 -------------------------------------------------------------------
 Cartesian Forces:  Max     0.004771825 RMS     0.001960177
 Leave Link  716 at Thu Oct 12 11:38:12 2023, MaxMem=   104857600 cpu:               0.0 elap:               0.0
 (Enter /opt/g16/l123.exe)
 IRC-IRC-IRC-IRC-IRC-IRC-IRC-IRC-IRC-IRC-IRC-IRC-IRC-IRC-IRC-IRC-IRC-IRC
 Pt  1 Step number   1 out of a maximum of  10
 Using modified Bulirsch-Stoer corrector integration.
   Using distance weighted interpolants to fit PES.
 PreDWI: IReCr0= 2 IReCr1= 1 IReCr2= 1 IReCr3= 1
 Modified Bulirsch-Stoer Extrapolation Cycles:
    EPS =    0.000010000000000
    Cycle     1 NS=    48
      PEZero:  N= 2 I= 1 D=  7.34D-04 Err=  1.33D-03
    Cycle     2 NS=    64 Truncation Error =  0.001325410
      PEZero:  N= 3 I= 2 D=  7.34D-04 Err=  8.84D-04
      PEZero:  N= 3 I= 1 D=  1.47D-03 Err=  4.34D-07
    Cycle     3 NS=    96 Truncation Error =  0.000000434
 BS completed in    3 cycles and     208 integration steps.
 Maximum DWI energy   std dev =  0.002081591 at pt     1
 Maximum DWI gradient std dev =  0.444287318 at pt    11
 SUMMARY OF CORRECTOR INTEGRATION:
   Predictor End Point Energy =  -132.656985
   Old End Point Energy       =  -132.656985
   Corrected End Point Energy =  -132.656988
   Predictor End-Start Dist.  =     0.282005
   Old End-Start Dist.        =     0.282005
   New End-Start Dist.        =     0.281967
   New End-Old End Dist.      =     0.004055
 CORRECTOR INTEGRATION CONVERGENCE:
   Recorrection delta-x convergence threshold:    0.010000
   Delta-x Convergence Met
 Point Number:   1          Path Number:   1
                    CURRENT STRUCTURE
                Cartesian Coordinates (Ang):                
 ---------------------------------------------------------------------
 Center     Atomic                     Coordinates (Angstroms)
 Number     Number                        X           Y           Z
 ---------------------------------------------------------------------
      1          6                   -0.028236    0.072340    1.060466
      2          1                   -0.057087    1.113491    1.369733
      3          1                   -0.847743   -0.518333    1.460548
      4          1                    0.927781   -0.376178    1.329105
      5          7                    0.507876   -0.282574   -0.689578
      6          6                   -0.566350    0.239015   -0.605106
 ---------------------------------------------------------------------
   CHANGE IN THE REACTION COORDINATE =    0.28197
   NET REACTION COORDINATE UP TO THIS POINT =    0.28197
  # OF POINTS ALONG THE PATH =   1
  # OF STEPS =   1

 Calculating another point on the path.
 Point Number  2 in FORWARD path direction.
 Using LQA Reaction Path Following.
   LQA: T_Est iteration completed in    3 iterations.
 IRC-IRC-IRC-IRC-IRC-IRC-IRC-IRC-IRC-IRC-IRC-IRC-IRC-IRC-IRC-IRC-IRC-IRC
 Leave Link  123 at Thu Oct 12 11:38:13 2023, MaxMem=   104857600 cpu:               0.0 elap:               0.0
 (Enter /opt/g16/l202.exe)
                          Input orientation:                          
 ---------------------------------------------------------------------
 Center     Atomic      Atomic             Coordinates (Angstroms)
 Number     Number       Type             X           Y           Z
 ---------------------------------------------------------------------
      1          6           0       -0.043872    0.080077    1.064157
      2          1           0       -0.064582    1.117696    1.383288
      3          1           0       -0.855227   -0.513160    1.475100
      4          1           0        0.917385   -0.372326    1.307656
      5          7           0        0.513696   -0.286740   -0.713655
      6          6           0       -0.555416    0.235049   -0.581238
 ---------------------------------------------------------------------
                    Distance matrix (angstroms):
                    1          2          3          4          5
     1  C    0.000000
     2  H    1.085784   0.000000
     3  H    1.085864   1.814729   0.000000
     4  H    1.089942   1.786097   1.786064   0.000000
     5  N    1.898961   2.589211   2.591498   2.063004   0.000000
     6  C    1.730035   2.208924   2.208672   2.471026   1.196996
                    6
     6  C    0.000000
 Symmetry turned off by external request.
 Stoichiometry    C2H3N
 Framework group  C1[X(C2H3N)]
 Deg. of freedom    12
 Full point group                 C1      NOp   1
 Rotational constants (GHZ):          41.8310897          15.4253487          12.1703870
 Leave Link  202 at Thu Oct 12 11:38:13 2023, MaxMem=   104857600 cpu:               0.0 elap:               0.0
 (Enter /opt/g16/l301.exe)
 Standard basis: STO-3G (5D, 7F)
 Ernie: Thresh=  0.10000D-02 Tol=  0.10000D-05 Strict=F.
    18 basis functions,    54 primitive gaussians,    18 cartesian basis functions
    11 alpha electrons       11 beta electrons
       nuclear repulsion energy        59.7440946317 Hartrees.
 IExCor=    0 DFT=F Ex=HF Corr=None ExCW=0 ScaHFX=  1.000000
 ScaDFX=  1.000000  1.000000  1.000000  1.000000 ScalE2=  1.000000  1.000000
 IRadAn=      5 IRanWt=     -1 IRanGd=            0 ICorTp=0 IEmpDi=  4
 NAtoms=    6 NActive=    6 NUniq=    6 SFac= 1.00D+00 NAtFMM=   60 NAOKFM=F Big=F
 Integral buffers will be    131072 words long.
 Raffenetti 1 integral format.
 Two-electron integral symmetry is turned off.
 Leave Link  301 at Thu Oct 12 11:38:13 2023, MaxMem=   104857600 cpu:               0.1 elap:               0.1
 (Enter /opt/g16/l402.exe)
 External calculation of energy and first derivatives.
 Running external command "python3 -u ../../src/gamesp.py R"
         input file       "/home/jh-li/scratch/g16/Gau-376502.EIn"
         output file      "/home/jh-li/scratch/g16/Gau-376502.EOu"
         message file     "/home/jh-li/scratch/g16/Gau-376502.EMs"
         fchk file        "/home/jh-li/scratch/g16/Gau-376502.EFC"
         mat. el file     "/home/jh-li/scratch/g16/Gau-376502.EUF"
>>> Running Amesp...
>>> Parsing Amesp output...
>>> 大师大法好！
 Recovered energy= -132.657915651     dipole=      0.046500000000      0.119300000000      2.563400000000
 NRF= 0 NRA=   0 NVA=   0 HaveQM=F NVQ=       0
 Convergence limit is  0.750E-04 MaxStp= 10000 StMxLn= 3.00D-04 StpMin= 1.00D-06.
 Convergence criteria             0.00011250 0.00007500 0.00045000 0.00030000
  Step  NS  ND Rises OKQ   Scale  Max. Force  RMS Force Max. Disp.  RMS Disp.     Energy   Flag
     1   0   0   F    T  1.00D+00 0.00000000 0.00000000 0.00000000 0.00000000 -132.6579157 ====
 Running external command "python3 -u ../../src/gamesp.py R"
         input file       "/home/jh-li/scratch/g16/Gau-376502.EIn"
         output file      "/home/jh-li/scratch/g16/Gau-376502.EOu"
         message file     "/home/jh-li/scratch/g16/Gau-376502.EMs"
         fchk file        "/home/jh-li/scratch/g16/Gau-376502.EFC"
         mat. el file     "/home/jh-li/scratch/g16/Gau-376502.EUF"
>>> Running Amesp...
>>> Parsing Amesp output...
>>> 大师大法好！
 Recovered energy= -132.657915651     dipole=      0.046500000000      0.119300000000      2.563400000000
 Energy=    -132.657916     NIter=   0.
 Dipole moment=       0.046500       0.119300       2.563400
 Leave Link  402 at Thu Oct 12 11:38:17 2023, MaxMem=   104857600 cpu:               0.1 elap:               4.0
 (Enter /opt/g16/l716.exe)
 Dipole        = 4.65000000D-02 1.19300000D-01 2.56340000D+00
 -------------------------------------------------------------------
 Center     Atomic                   Forces (Hartrees/Bohr)
 Number     Number              X              Y              Z
 -------------------------------------------------------------------
      1        6          -0.004948374    0.002436576    0.001096002
      2        1          -0.000268537    0.000443251    0.000815014
      3        1          -0.000455293    0.000043327    0.000837607
      4        1          -0.000448512    0.000243538    0.000074325
      5        7          -0.002898265    0.000770912   -0.010146720
      6        6           0.009018982   -0.003937604    0.007323772
 -------------------------------------------------------------------
 Cartesian Forces:  Max     0.010146720 RMS     0.004056330
 Leave Link  716 at Thu Oct 12 11:38:17 2023, MaxMem=   104857600 cpu:               0.0 elap:               0.0
 (Enter /opt/g16/l123.exe)
 IRC-IRC-IRC-IRC-IRC-IRC-IRC-IRC-IRC-IRC-IRC-IRC-IRC-IRC-IRC-IRC-IRC-IRC
 Pt  2 Step number   1 out of a maximum of  10
 Using modified Bulirsch-Stoer corrector integration.
   Using distance weighted interpolants to fit PES.
 PreDWI: IReCr0= 2 IReCr1= 1 IReCr2= 1 IReCr3= 1
 Modified Bulirsch-Stoer Extrapolation Cycles:
    EPS =    0.000010000000000
    Cycle     1 NS=    48
      PEZero:  N= 2 I= 1 D=  1.47D-03 Err=  6.37D-05
    Cycle     2 NS=    64 Truncation Error =  0.000063724
      PEZero:  N= 3 I= 2 D=  1.47D-03 Err=  4.22D-05
      PEZero:  N= 3 I= 1 D=  2.94D-03 Err=  3.88D-07
    Cycle     3 NS=    96 Truncation Error =  0.000000388
 BS completed in    3 cycles and     208 integration steps.
 Maximum DWI energy   std dev =  0.000005414 at pt    70
 Maximum DWI gradient std dev =  0.197132326 at pt    55
 SUMMARY OF CORRECTOR INTEGRATION:
   Predictor End Point Energy =  -132.657916
   Old End Point Energy       =  -132.657916
   Corrected End Point Energy =  -132.657936
   Predictor End-Start Dist.  =     0.281906
   Old End-Start Dist.        =     0.281906
   New End-Start Dist.        =     0.281627
   New End-Old End Dist.      =     0.017356
 CORRECTOR INTEGRATION CONVERGENCE:
   Recorrection delta-x convergence threshold:    0.010000
   Delta-x Convergence NOT Met
 IRC-IRC-IRC-IRC-IRC-IRC-IRC-IRC-IRC-IRC-IRC-IRC-IRC-IRC-IRC-IRC-IRC-IRC
 Leave Link  123 at Thu Oct 12 11:38:17 2023, MaxMem=   104857600 cpu:               0.0 elap:               0.0
 (Enter /opt/g16/l202.exe)
                          Input orientation:                          
 ---------------------------------------------------------------------
 Center     Atomic      Atomic             Coordinates (Angstroms)
 Number     Number       Type             X           Y           Z
 ---------------------------------------------------------------------
      1          6           0       -0.043855    0.080163    1.064564
      2          1           0       -0.065573    1.117982    1.385441
      3          1           0       -0.855791   -0.512332    1.477221
      4          1           0        0.916494   -0.371407    1.311485
      5          7           0        0.512566   -0.286302   -0.713812
      6          6           0       -0.554111    0.234387   -0.582052
 ---------------------------------------------------------------------
                    Distance matrix (angstroms):
                    1          2          3          4          5
     1  C    0.000000
     2  H    1.086510   0.000000
     3  H    1.086543   1.814054   0.000000
     4  H    1.089567   1.785555   1.785588   0.000000
     5  N    1.899085   2.590970   2.593090   2.066938   0.000000
     6  C    1.730749   2.211434   2.211155   2.472883   1.194269
                    6
     6  C    0.000000
 Symmetry turned off by external request.
 Stoichiometry    C2H3N
 Framework group  C1[X(C2H3N)]
 Deg. of freedom    12
 Full point group                 C1      NOp   1
 Rotational constants (GHZ):          41.9697412          15.4047323          12.1685111
 Leave Link  202 at Thu Oct 12 11:38:17 2023, MaxMem=   104857600 cpu:               0.0 elap:               0.0
 (Enter /opt/g16/l301.exe)
 Standard basis: STO-3G (5D, 7F)
 Ernie: Thresh=  0.10000D-02 Tol=  0.10000D-05 Strict=F.
    18 basis functions,    54 primitive gaussians,    18 cartesian basis functions
    11 alpha electrons       11 beta electrons
       nuclear repulsion energy        59.7692124086 Hartrees.
 IExCor=    0 DFT=F Ex=HF Corr=None ExCW=0 ScaHFX=  1.000000
 ScaDFX=  1.000000  1.000000  1.000000  1.000000 ScalE2=  1.000000  1.000000
 IRadAn=      5 IRanWt=     -1 IRanGd=            0 ICorTp=0 IEmpDi=  4
 NAtoms=    6 NActive=    6 NUniq=    6 SFac= 1.00D+00 NAtFMM=   60 NAOKFM=F Big=F
 Integral buffers will be    131072 words long.
 Raffenetti 1 integral format.
 Two-electron integral symmetry is turned off.
 Leave Link  301 at Thu Oct 12 11:38:17 2023, MaxMem=   104857600 cpu:               0.1 elap:               0.1
 (Enter /opt/g16/l402.exe)
 External calculation of energy and first derivatives.
 Running external command "python3 -u ../../src/gamesp.py R"
         input file       "/home/jh-li/scratch/g16/Gau-376502.EIn"
         output file      "/home/jh-li/scratch/g16/Gau-376502.EOu"
         message file     "/home/jh-li/scratch/g16/Gau-376502.EMs"
         fchk file        "/home/jh-li/scratch/g16/Gau-376502.EFC"
         mat. el file     "/home/jh-li/scratch/g16/Gau-376502.EUF"
>>> Running Amesp...
>>> Parsing Amesp output...
>>> 大师大法好！
 Recovered energy= -132.657935583     dipole=      0.045900000000      0.120000000000      2.567100000000
 NRF= 0 NRA=   0 NVA=   0 HaveQM=F NVQ=       0
 Convergence limit is  0.750E-04 MaxStp= 10000 StMxLn= 3.00D-04 StpMin= 1.00D-06.
 Convergence criteria             0.00011250 0.00007500 0.00045000 0.00030000
  Step  NS  ND Rises OKQ   Scale  Max. Force  RMS Force Max. Disp.  RMS Disp.     Energy   Flag
     1   0   0   F    T  1.00D+00 0.00000000 0.00000000 0.00000000 0.00000000 -132.6579356 ====
 Running external command "python3 -u ../../src/gamesp.py R"
         input file       "/home/jh-li/scratch/g16/Gau-376502.EIn"
         output file      "/home/jh-li/scratch/g16/Gau-376502.EOu"
         message file     "/home/jh-li/scratch/g16/Gau-376502.EMs"
         fchk file        "/home/jh-li/scratch/g16/Gau-376502.EFC"
         mat. el file     "/home/jh-li/scratch/g16/Gau-376502.EUF"
>>> Running Amesp...
>>> Parsing Amesp output...
>>> 大师大法好！
 Recovered energy= -132.657935583     dipole=      0.045900000000      0.120000000000      2.567100000000
 Energy=    -132.657936     NIter=   0.
 Dipole moment=       0.045900       0.120000       2.567100
 Leave Link  402 at Thu Oct 12 11:38:21 2023, MaxMem=   104857600 cpu:               0.0 elap:               4.1
 (Enter /opt/g16/l716.exe)
 Dipole        = 4.59000000D-02 1.20000000D-01 2.56710000D+00
 -------------------------------------------------------------------
 Center     Atomic                   Forces (Hartrees/Bohr)
 Number     Number              X              Y              Z
 -------------------------------------------------------------------
      1        6          -0.005708933    0.002880341    0.001738341
      2        1          -0.000240772    0.000090373    0.000420720
      3        1          -0.000193796    0.000182341    0.000431949
      4        1          -0.000202753    0.000093735   -0.000250918
      5        7           0.001808821   -0.001524525   -0.010732257
      6        6           0.004537433   -0.001722264    0.008392164
 -------------------------------------------------------------------
 Cartesian Forces:  Max     0.010732257 RMS     0.003795346
 Leave Link  716 at Thu Oct 12 11:38:21 2023, MaxMem=   104857600 cpu:               0.0 elap:               0.0
 (Enter /opt/g16/l123.exe)
 IRC-IRC-IRC-IRC-IRC-IRC-IRC-IRC-IRC-IRC-IRC-IRC-IRC-IRC-IRC-IRC-IRC-IRC
 Error in corrector energy =          -0.0000002968
 Magnitude of corrector gradient =     0.0157030467
 Magnitude of analytic gradient =      0.0161022904
 Magnitude of difference =             0.0006212422
 Angle between gradients (degrees)=    1.7151
 Pt  2 Step number   2 out of a maximum of  10
 Using modified Bulirsch-Stoer corrector integration.
   Using distance weighted interpolants to fit PES.
 PreDWI: IReCr0= 2 IReCr1= 1 IReCr2= 1 IReCr3= 1
 Modified Bulirsch-Stoer Extrapolation Cycles:
    EPS =    0.000010000000000
    Cycle     1 NS=    48
      PEZero:  N= 2 I= 1 D=  1.47D-03 Err=  5.92D-05
    Cycle     2 NS=    64 Truncation Error =  0.000059164
      PEZero:  N= 3 I= 2 D=  1.47D-03 Err=  3.92D-05
      PEZero:  N= 3 I= 1 D=  2.94D-03 Err=  3.74D-07
    Cycle     3 NS=    96 Truncation Error =  0.000000374
 BS completed in    3 cycles and     208 integration steps.
 Maximum DWI energy   std dev =  0.000004574 at pt    73
 Maximum DWI gradient std dev =  0.190536264 at pt    55
 SUMMARY OF CORRECTOR INTEGRATION:
   Predictor End Point Energy =  -132.657916
   Old End Point Energy       =  -132.657936
   Corrected End Point Energy =  -132.657936
   Predictor End-Start Dist.  =     0.281906
   Old End-Start Dist.        =     0.281627
   New End-Start Dist.        =     0.281631
   New End-Old End Dist.      =     0.004110
 CORRECTOR INTEGRATION CONVERGENCE:
   Recorrection delta-x convergence threshold:    0.010000
   Delta-x Convergence Met
 Point Number:   2          Path Number:   1
                    CURRENT STRUCTURE
                Cartesian Coordinates (Ang):                
 ---------------------------------------------------------------------
 Center     Atomic                     Coordinates (Angstroms)
 Number     Number                        X           Y           Z
 ---------------------------------------------------------------------
      1          6                   -0.043578    0.080027    1.064504
      2          1                   -0.065275    1.117916    1.384799
      3          1                   -0.855575   -0.512642    1.476494
      4          1                    0.916819   -0.371535    1.312449
      5          7                    0.512537   -0.286300   -0.714020
      6          6                   -0.554187    0.234437   -0.581831
 ---------------------------------------------------------------------
   CHANGE IN THE REACTION COORDINATE =    0.28163
   NET REACTION COORDINATE UP TO THIS POINT =    0.56360
  # OF POINTS ALONG THE PATH =   2
  # OF STEPS =   2

 Calculating another point on the path.
 Point Number  3 in FORWARD path direction.
 Using LQA Reaction Path Following.
   LQA: T_Est iteration completed in    3 iterations.
 IRC-IRC-IRC-IRC-IRC-IRC-IRC-IRC-IRC-IRC-IRC-IRC-IRC-IRC-IRC-IRC-IRC-IRC
 Leave Link  123 at Thu Oct 12 11:38:21 2023, MaxMem=   104857600 cpu:               0.0 elap:               0.0
 (Enter /opt/g16/l202.exe)
                          Input orientation:                          
 ---------------------------------------------------------------------
 Center     Atomic      Atomic             Coordinates (Angstroms)
 Number     Number       Type             X           Y           Z
 ---------------------------------------------------------------------
      1          6           0       -0.058764    0.087655    1.069410
      2          1           0       -0.074144    1.122186    1.401523
      3          1           0       -0.863537   -0.506471    1.493933
      4          1           0        0.905727   -0.366663    1.296716
      5          7           0        0.517031   -0.289949   -0.738893
      6          6           0       -0.541926    0.229796   -0.559246
 ---------------------------------------------------------------------
                    Distance matrix (angstroms):
                    1          2          3          4          5
     1  C    0.000000
     2  H    1.086641   0.000000
     3  H    1.086675   1.812237   0.000000
     4  H    1.090099   1.785442   1.785703   0.000000
     5  N    1.934964   2.631538   2.634077   2.073807   0.000000
     6  C    1.704749   2.204494   2.204782   2.428180   1.193230
                    6
     6  C    0.000000
 Symmetry turned off by external request.
 Stoichiometry    C2H3N
 Framework group  C1[X(C2H3N)]
 Deg. of freedom    12
 Full point group                 C1      NOp   1
 Rotational constants (GHZ):          43.0614762          15.1205718          12.0760781
 Leave Link  202 at Thu Oct 12 11:38:21 2023, MaxMem=   104857600 cpu:               0.0 elap:               0.0
 (Enter /opt/g16/l301.exe)
 Standard basis: STO-3G (5D, 7F)
 Ernie: Thresh=  0.10000D-02 Tol=  0.10000D-05 Strict=F.
    18 basis functions,    54 primitive gaussians,    18 cartesian basis functions
    11 alpha electrons       11 beta electrons
       nuclear repulsion energy        59.7165318887 Hartrees.
 IExCor=    0 DFT=F Ex=HF Corr=None ExCW=0 ScaHFX=  1.000000
 ScaDFX=  1.000000  1.000000  1.000000  1.000000 ScalE2=  1.000000  1.000000
 IRadAn=      5 IRanWt=     -1 IRanGd=            0 ICorTp=0 IEmpDi=  4
 NAtoms=    6 NActive=    6 NUniq=    6 SFac= 1.00D+00 NAtFMM=   60 NAOKFM=F Big=F
 Integral buffers will be    131072 words long.
 Raffenetti 1 integral format.
 Two-electron integral symmetry is turned off.
 Leave Link  301 at Thu Oct 12 11:38:21 2023, MaxMem=   104857600 cpu:               0.1 elap:               0.1
 (Enter /opt/g16/l402.exe)
 External calculation of energy and first derivatives.
 Running external command "python3 -u ../../src/gamesp.py R"
         input file       "/home/jh-li/scratch/g16/Gau-376502.EIn"
         output file      "/home/jh-li/scratch/g16/Gau-376502.EOu"
         message file     "/home/jh-li/scratch/g16/Gau-376502.EMs"
         fchk file        "/home/jh-li/scratch/g16/Gau-376502.EFC"
         mat. el file     "/home/jh-li/scratch/g16/Gau-376502.EUF"
>>> Running Amesp...
>>> Parsing Amesp output...
>>> 大师大法好！
 Recovered energy= -132.659551965     dipole=     -0.024500000000      0.151200000000      2.509700000000
 NRF= 0 NRA=   0 NVA=   0 HaveQM=F NVQ=       0
 Convergence limit is  0.750E-04 MaxStp= 10000 StMxLn= 3.00D-04 StpMin= 1.00D-06.
 Convergence criteria             0.00011250 0.00007500 0.00045000 0.00030000
  Step  NS  ND Rises OKQ   Scale  Max. Force  RMS Force Max. Disp.  RMS Disp.     Energy   Flag
     1   0   0   F    T  1.00D+00 0.00000000 0.00000000 0.00000000 0.00000000 -132.6595520 ====
 Running external command "python3 -u ../../src/gamesp.py R"
         input file       "/home/jh-li/scratch/g16/Gau-376502.EIn"
         output file      "/home/jh-li/scratch/g16/Gau-376502.EOu"
         message file     "/home/jh-li/scratch/g16/Gau-376502.EMs"
         fchk file        "/home/jh-li/scratch/g16/Gau-376502.EFC"
         mat. el file     "/home/jh-li/scratch/g16/Gau-376502.EUF"
>>> Running Amesp...
>>> Parsing Amesp output...
>>> 大师大法好！
 Recovered energy= -132.659551965     dipole=     -0.024500000000      0.151200000000      2.509700000000
 Energy=    -132.659552     NIter=   0.
 Dipole moment=      -0.024500       0.151200       2.509700
 Leave Link  402 at Thu Oct 12 11:38:25 2023, MaxMem=   104857600 cpu:               0.0 elap:               4.0
 (Enter /opt/g16/l716.exe)
 Dipole        =-2.45000000D-02 1.51200000D-01 2.50970000D+00
 -------------------------------------------------------------------
 Center     Atomic                   Forces (Hartrees/Bohr)
 Number     Number              X              Y              Z
 -------------------------------------------------------------------
      1        6          -0.008165636    0.004140249    0.002680046
      2        1          -0.000428751    0.000186650    0.000858947
      3        1          -0.000355459    0.000291657    0.000831375
      4        1          -0.000575209    0.000276958   -0.000041715
      5        7          -0.000739009   -0.000598532   -0.016156640
      6        6           0.010264064   -0.004296982    0.011827988
 -------------------------------------------------------------------
 Cartesian Forces:  Max     0.016156640 RMS     0.005863863
 Leave Link  716 at Thu Oct 12 11:38:25 2023, MaxMem=   104857600 cpu:               0.0 elap:               0.0
 (Enter /opt/g16/l123.exe)
 IRC-IRC-IRC-IRC-IRC-IRC-IRC-IRC-IRC-IRC-IRC-IRC-IRC-IRC-IRC-IRC-IRC-IRC
 Pt  3 Step number   1 out of a maximum of  10
 Using modified Bulirsch-Stoer corrector integration.
   Using distance weighted interpolants to fit PES.
 PreDWI: IReCr0= 2 IReCr1= 1 IReCr2= 1 IReCr3= 1
 Modified Bulirsch-Stoer Extrapolation Cycles:
    EPS =    0.000010000000000
    Cycle     1 NS=    48
      PEZero:  N= 2 I= 1 D=  1.47D-03 Err=  3.38D-05
    Cycle     2 NS=    64 Truncation Error =  0.000033774
      PEZero:  N= 3 I= 2 D=  1.47D-03 Err=  2.25D-05
      PEZero:  N= 3 I= 1 D=  2.94D-03 Err=  2.62D-07
    Cycle     3 NS=    96 Truncation Error =  0.000000262
 BS completed in    3 cycles and     208 integration steps.
 Maximum DWI energy   std dev =  0.000004401 at pt    67
 Maximum DWI gradient std dev =  0.079976536 at pt    56
 SUMMARY OF CORRECTOR INTEGRATION:
   Predictor End Point Energy =  -132.659552
   Old End Point Energy       =  -132.659552
   Corrected End Point Energy =  -132.659561
   Predictor End-Start Dist.  =     0.281920
   Old End-Start Dist.        =     0.281920
   New End-Start Dist.        =     0.281829
   New End-Old End Dist.      =     0.010455
 CORRECTOR INTEGRATION CONVERGENCE:
   Recorrection delta-x convergence threshold:    0.010000
   Delta-x Convergence NOT Met
 IRC-IRC-IRC-IRC-IRC-IRC-IRC-IRC-IRC-IRC-IRC-IRC-IRC-IRC-IRC-IRC-IRC-IRC
 Leave Link  123 at Thu Oct 12 11:38:25 2023, MaxMem=   104857600 cpu:               0.0 elap:               0.0
 (Enter /opt/g16/l202.exe)
                          Input orientation:                          
 ---------------------------------------------------------------------
 Center     Atomic      Atomic             Coordinates (Angstroms)
 Number     Number       Type             X           Y           Z
 ---------------------------------------------------------------------
      1          6           0       -0.058765    0.087700    1.069525
      2          1           0       -0.074864    1.122200    1.402099
      3          1           0       -0.863932   -0.505966    1.494194
      4          1           0        0.904975   -0.366187    1.299827
      5          7           0        0.516343   -0.289625   -0.738888
      6          6           0       -0.541163    0.229393   -0.559598
 ---------------------------------------------------------------------
                    Distance matrix (angstroms):
                    1          2          3          4          5
     1  C    0.000000
     2  H    1.086764   0.000000
     3  H    1.086773   1.811639   0.000000
     4  H    1.089885   1.784892   1.785035   0.000000
     5  N    1.934809   2.631844   2.634126   2.076838   0.000000
     6  C    1.704941   2.205175   2.205219   2.429710   1.191572
                    6
     6  C    0.000000
 Symmetry turned off by external request.
 Stoichiometry    C2H3N
 Framework group  C1[X(C2H3N)]
 Deg. of freedom    12
 Full point group                 C1      NOp   1
 Rotational constants (GHZ):          43.1480975          15.1139899          12.0780468
 Leave Link  202 at Thu Oct 12 11:38:25 2023, MaxMem=   104857600 cpu:               0.0 elap:               0.0
 (Enter /opt/g16/l301.exe)
 Standard basis: STO-3G (5D, 7F)
 Ernie: Thresh=  0.10000D-02 Tol=  0.10000D-05 Strict=F.
    18 basis functions,    54 primitive gaussians,    18 cartesian basis functions
    11 alpha electrons       11 beta electrons
       nuclear repulsion energy        59.7380538382 Hartrees.
 IExCor=    0 DFT=F Ex=HF Corr=None ExCW=0 ScaHFX=  1.000000
 ScaDFX=  1.000000  1.000000  1.000000  1.000000 ScalE2=  1.000000  1.000000
 IRadAn=      5 IRanWt=     -1 IRanGd=            0 ICorTp=0 IEmpDi=  4
 NAtoms=    6 NActive=    6 NUniq=    6 SFac= 1.00D+00 NAtFMM=   60 NAOKFM=F Big=F
 Integral buffers will be    131072 words long.
 Raffenetti 1 integral format.
 Two-electron integral symmetry is turned off.
 Leave Link  301 at Thu Oct 12 11:38:25 2023, MaxMem=   104857600 cpu:               0.1 elap:               0.0
 (Enter /opt/g16/l402.exe)
 External calculation of energy and first derivatives.
 Running external command "python3 -u ../../src/gamesp.py R"
         input file       "/home/jh-li/scratch/g16/Gau-376502.EIn"
         output file      "/home/jh-li/scratch/g16/Gau-376502.EOu"
         message file     "/home/jh-li/scratch/g16/Gau-376502.EMs"
         fchk file        "/home/jh-li/scratch/g16/Gau-376502.EFC"
         mat. el file     "/home/jh-li/scratch/g16/Gau-376502.EUF"
>>> Running Amesp...
>>> Parsing Amesp output...
>>> 大师大法好！
 Recovered energy= -132.659560825     dipole=     -0.025300000000      0.151700000000      2.511700000000
 NRF= 0 NRA=   0 NVA=   0 HaveQM=F NVQ=       0
 Convergence limit is  0.750E-04 MaxStp= 10000 StMxLn= 3.00D-04 StpMin= 1.00D-06.
 Convergence criteria             0.00011250 0.00007500 0.00045000 0.00030000
  Step  NS  ND Rises OKQ   Scale  Max. Force  RMS Force Max. Disp.  RMS Disp.     Energy   Flag
     1   0   0   F    T  1.00D+00 0.00000000 0.00000000 0.00000000 0.00000000 -132.6595608 ====
 Running external command "python3 -u ../../src/gamesp.py R"
         input file       "/home/jh-li/scratch/g16/Gau-376502.EIn"
         output file      "/home/jh-li/scratch/g16/Gau-376502.EOu"
         message file     "/home/jh-li/scratch/g16/Gau-376502.EMs"
         fchk file        "/home/jh-li/scratch/g16/Gau-376502.EFC"
         mat. el file     "/home/jh-li/scratch/g16/Gau-376502.EUF"
>>> Running Amesp...
>>> Parsing Amesp output...
>>> 大师大法好！
 Recovered energy= -132.659560825     dipole=     -0.025300000000      0.151700000000      2.511700000000
 Energy=    -132.659561     NIter=   0.
 Dipole moment=      -0.025300       0.151700       2.511700
 Leave Link  402 at Thu Oct 12 11:38:29 2023, MaxMem=   104857600 cpu:               0.0 elap:               4.0
 (Enter /opt/g16/l716.exe)
 Dipole        =-2.53000000D-02 1.51700000D-01 2.51170000D+00
 -------------------------------------------------------------------
 Center     Atomic                   Forces (Hartrees/Bohr)
 Number     Number              X              Y              Z
 -------------------------------------------------------------------
      1        6          -0.008510010    0.004310616    0.002969398
      2        1          -0.000431522    0.000156647    0.000742583
      3        1          -0.000351872    0.000300056    0.000736507
      4        1          -0.000410575    0.000189623   -0.000317831
      5        7           0.002175941   -0.002025513   -0.016646710
      6        6           0.007528037   -0.002931429    0.012516054
 -------------------------------------------------------------------
 Cartesian Forces:  Max     0.016646710 RMS     0.005819076
 Leave Link  716 at Thu Oct 12 11:38:29 2023, MaxMem=   104857600 cpu:               0.0 elap:               0.0
 (Enter /opt/g16/l123.exe)
 IRC-IRC-IRC-IRC-IRC-IRC-IRC-IRC-IRC-IRC-IRC-IRC-IRC-IRC-IRC-IRC-IRC-IRC
 Error in corrector energy =           0.0000001948
 Magnitude of corrector gradient =     0.0243341526
 Magnitude of analytic gradient =      0.0246882488
 Magnitude of difference =             0.0005643748
 Angle between gradients (degrees)=    1.0273
 Pt  3 Step number   2 out of a maximum of  10
 Using modified Bulirsch-Stoer corrector integration.
   Using distance weighted interpolants to fit PES.
 PreDWI: IReCr0= 2 IReCr1= 1 IReCr2= 1 IReCr3= 1
 Modified Bulirsch-Stoer Extrapolation Cycles:
    EPS =    0.000010000000000
    Cycle     1 NS=    48
      PEZero:  N= 2 I= 1 D=  1.47D-03 Err=  2.78D-05
    Cycle     2 NS=    64 Truncation Error =  0.000027821
      PEZero:  N= 3 I= 2 D=  1.47D-03 Err=  1.85D-05
      PEZero:  N= 3 I= 1 D=  2.94D-03 Err=  2.73D-07
    Cycle     3 NS=    96 Truncation Error =  0.000000273
 BS completed in    3 cycles and     208 integration steps.
 Maximum DWI energy   std dev =  0.000003889 at pt    71
 Maximum DWI gradient std dev =  0.083394736 at pt    28
 SUMMARY OF CORRECTOR INTEGRATION:
   Predictor End Point Energy =  -132.659552
   Old End Point Energy       =  -132.659561
   Corrected End Point Energy =  -132.659561
   Predictor End-Start Dist.  =     0.281920
   Old End-Start Dist.        =     0.281829
   New End-Start Dist.        =     0.281824
   New End-Old End Dist.      =     0.002713
 CORRECTOR INTEGRATION CONVERGENCE:
   Recorrection delta-x convergence threshold:    0.010000
   Delta-x Convergence Met
 Point Number:   3          Path Number:   1
                    CURRENT STRUCTURE
                Cartesian Coordinates (Ang):                
 ---------------------------------------------------------------------
 Center     Atomic                     Coordinates (Angstroms)
 Number     Number                        X           Y           Z
 ---------------------------------------------------------------------
      1          6                   -0.058615    0.087625    1.069486
      2          1                   -0.074615    1.122174    1.401584
      3          1                   -0.863779   -0.506234    1.493642
      4          1                    0.905255   -0.366296    1.300449
      5          7                    0.516323   -0.289624   -0.739014
      6          6                   -0.541202    0.229423   -0.559459
 ---------------------------------------------------------------------
   CHANGE IN THE REACTION COORDINATE =    0.28182
   NET REACTION COORDINATE UP TO THIS POINT =    0.84542
  # OF POINTS ALONG THE PATH =   3
  # OF STEPS =   2

 Calculating another point on the path.
 Point Number  4 in FORWARD path direction.
 Using LQA Reaction Path Following.
   LQA: T_Est iteration completed in    3 iterations.
 IRC-IRC-IRC-IRC-IRC-IRC-IRC-IRC-IRC-IRC-IRC-IRC-IRC-IRC-IRC-IRC-IRC-IRC
 Leave Link  123 at Thu Oct 12 11:38:29 2023, MaxMem=   104857600 cpu:               0.0 elap:               0.0
 (Enter /opt/g16/l202.exe)
                          Input orientation:                          
 ---------------------------------------------------------------------
 Center     Atomic      Atomic             Coordinates (Angstroms)
 Number     Number       Type             X           Y           Z
 ---------------------------------------------------------------------
      1          6           0       -0.073422    0.095105    1.074916
      2          1           0       -0.084572    1.126253    1.419391
      3          1           0       -0.872182   -0.499415    1.511450
      4          1           0        0.893436   -0.360960    1.289465
      5          7           0        0.519949   -0.292843   -0.764275
      6          6           0       -0.528113    0.224348   -0.537462
 ---------------------------------------------------------------------
                    Distance matrix (angstroms):
                    1          2          3          4          5
     1  C    0.000000
     2  H    1.087222   0.000000
     3  H    1.087214   1.808756   0.000000
     4  H    1.090340   1.784708   1.784896   0.000000
     5  N    1.971095   2.673514   2.675748   2.088535   0.000000
     6  C    1.680241   2.199872   2.200058   2.387687   1.190531
                    6
     6  C    0.000000
 Symmetry turned off by external request.
 Stoichiometry    C2H3N
 Framework group  C1[X(C2H3N)]
 Deg. of freedom    12
 Full point group                 C1      NOp   1
 Rotational constants (GHZ):          44.5159364          14.7920931          11.9698343
 Leave Link  202 at Thu Oct 12 11:38:29 2023, MaxMem=   104857600 cpu:               0.0 elap:               0.0
 (Enter /opt/g16/l301.exe)
 Standard basis: STO-3G (5D, 7F)
 Ernie: Thresh=  0.10000D-02 Tol=  0.10000D-05 Strict=F.
    18 basis functions,    54 primitive gaussians,    18 cartesian basis functions
    11 alpha electrons       11 beta electrons
       nuclear repulsion energy        59.6800743668 Hartrees.
 IExCor=    0 DFT=F Ex=HF Corr=None ExCW=0 ScaHFX=  1.000000
 ScaDFX=  1.000000  1.000000  1.000000  1.000000 ScalE2=  1.000000  1.000000
 IRadAn=      5 IRanWt=     -1 IRanGd=            0 ICorTp=0 IEmpDi=  4
 NAtoms=    6 NActive=    6 NUniq=    6 SFac= 1.00D+00 NAtFMM=   60 NAOKFM=F Big=F
 Integral buffers will be    131072 words long.
 Raffenetti 1 integral format.
 Two-electron integral symmetry is turned off.
 Leave Link  301 at Thu Oct 12 11:38:29 2023, MaxMem=   104857600 cpu:               0.1 elap:               0.0
 (Enter /opt/g16/l402.exe)
 External calculation of energy and first derivatives.
 Running external command "python3 -u ../../src/gamesp.py R"
         input file       "/home/jh-li/scratch/g16/Gau-376502.EIn"
         output file      "/home/jh-li/scratch/g16/Gau-376502.EOu"
         message file     "/home/jh-li/scratch/g16/Gau-376502.EMs"
         fchk file        "/home/jh-li/scratch/g16/Gau-376502.EFC"
         mat. el file     "/home/jh-li/scratch/g16/Gau-376502.EUF"
>>> Running Amesp...
>>> Parsing Amesp output...
>>> 大师大法好！
 Recovered energy= -132.661873440     dipole=     -0.107100000000      0.187900000000      2.450500000000
 NRF= 0 NRA=   0 NVA=   0 HaveQM=F NVQ=       0
 Convergence limit is  0.750E-04 MaxStp= 10000 StMxLn= 3.00D-04 StpMin= 1.00D-06.
 Convergence criteria             0.00011250 0.00007500 0.00045000 0.00030000
  Step  NS  ND Rises OKQ   Scale  Max. Force  RMS Force Max. Disp.  RMS Disp.     Energy   Flag
     1   0   0   F    T  1.00D+00 0.00000000 0.00000000 0.00000000 0.00000000 -132.6618734 ====
 Running external command "python3 -u ../../src/gamesp.py R"
         input file       "/home/jh-li/scratch/g16/Gau-376502.EIn"
         output file      "/home/jh-li/scratch/g16/Gau-376502.EOu"
         message file     "/home/jh-li/scratch/g16/Gau-376502.EMs"
         fchk file        "/home/jh-li/scratch/g16/Gau-376502.EFC"
         mat. el file     "/home/jh-li/scratch/g16/Gau-376502.EUF"
>>> Running Amesp...
>>> Parsing Amesp output...
>>> 大师大法好！
 Recovered energy= -132.661873440     dipole=     -0.107100000000      0.187900000000      2.450500000000
 Energy=    -132.661873     NIter=   0.
 Dipole moment=      -0.107100       0.187900       2.450500
 Leave Link  402 at Thu Oct 12 11:38:33 2023, MaxMem=   104857600 cpu:               0.0 elap:               4.0
 (Enter /opt/g16/l716.exe)
 Dipole        =-1.07100000D-01 1.87900000D-01 2.45050000D+00
 -------------------------------------------------------------------
 Center     Atomic                   Forces (Hartrees/Bohr)
 Number     Number              X              Y              Z
 -------------------------------------------------------------------
      1        6          -0.010929137    0.005544143    0.004336445
      2        1          -0.000632485    0.000132253    0.001023422
      3        1          -0.000445656    0.000486597    0.001004605
      4        1          -0.000844315    0.000416499   -0.000072626
      5        7          -0.001001515   -0.000782492   -0.021925266
      6        6           0.013853108   -0.005797000    0.015633421
 -------------------------------------------------------------------
 Cartesian Forces:  Max     0.021925266 RMS     0.007905834
 Leave Link  716 at Thu Oct 12 11:38:33 2023, MaxMem=   104857600 cpu:               0.0 elap:               0.0
 (Enter /opt/g16/l123.exe)
 IRC-IRC-IRC-IRC-IRC-IRC-IRC-IRC-IRC-IRC-IRC-IRC-IRC-IRC-IRC-IRC-IRC-IRC
 Pt  4 Step number   1 out of a maximum of  10
 Using modified Bulirsch-Stoer corrector integration.
   Using distance weighted interpolants to fit PES.
 PreDWI: IReCr0= 2 IReCr1= 1 IReCr2= 1 IReCr3= 1
 Modified Bulirsch-Stoer Extrapolation Cycles:
    EPS =    0.000010000000000
    Cycle     1 NS=    48
      PEZero:  N= 2 I= 1 D=  1.47D-03 Err=  3.49D-05
    Cycle     2 NS=    64 Truncation Error =  0.000034923
      PEZero:  N= 3 I= 2 D=  1.47D-03 Err=  2.33D-05
      PEZero:  N= 3 I= 1 D=  2.94D-03 Err=  2.08D-07
    Cycle     3 NS=    96 Truncation Error =  0.000000208
 BS completed in    3 cycles and     208 integration steps.
 Maximum DWI energy   std dev =  0.000002824 at pt    62
 Maximum DWI gradient std dev =  0.063405401 at pt    56
 SUMMARY OF CORRECTOR INTEGRATION:
   Predictor End Point Energy =  -132.661873
   Old End Point Energy       =  -132.661873
   Corrected End Point Energy =  -132.661883
   Predictor End-Start Dist.  =     0.281927
   Old End-Start Dist.        =     0.281927
   New End-Start Dist.        =     0.281835
   New End-Old End Dist.      =     0.009843
 CORRECTOR INTEGRATION CONVERGENCE:
   Recorrection delta-x convergence threshold:    0.010000
   Delta-x Convergence Met
 Point Number:   4          Path Number:   1
                    CURRENT STRUCTURE
                Cartesian Coordinates (Ang):                
 ---------------------------------------------------------------------
 Center     Atomic                     Coordinates (Angstroms)
 Number     Number                        X           Y           Z
 ---------------------------------------------------------------------
      1          6                   -0.073442    0.095124    1.075044
      2          1                   -0.085195    1.126209    1.419399
      3          1                   -0.872528   -0.498949    1.511395
      4          1                    0.892766   -0.360509    1.291713
      5          7                    0.519235   -0.292485   -0.764156
      6          6                   -0.527302    0.223935   -0.537800
 ---------------------------------------------------------------------
   CHANGE IN THE REACTION COORDINATE =    0.28184
   NET REACTION COORDINATE UP TO THIS POINT =    1.12726
  # OF POINTS ALONG THE PATH =   4
  # OF STEPS =   1

 Calculating another point on the path.
 Point Number  5 in FORWARD path direction.
 Using LQA Reaction Path Following.
   LQA: T_Est iteration completed in    3 iterations.
 IRC-IRC-IRC-IRC-IRC-IRC-IRC-IRC-IRC-IRC-IRC-IRC-IRC-IRC-IRC-IRC-IRC-IRC
 Leave Link  123 at Thu Oct 12 11:38:33 2023, MaxMem=   104857600 cpu:               0.0 elap:               0.0
 (Enter /opt/g16/l202.exe)
                          Input orientation:                          
 ---------------------------------------------------------------------
 Center     Atomic      Atomic             Coordinates (Angstroms)
 Number     Number       Type             X           Y           Z
 ---------------------------------------------------------------------
      1          6           0       -0.088272    0.102635    1.081152
      2          1           0       -0.096677    1.130209    1.438087
      3          1           0       -0.881772   -0.490893    1.529997
      4          1           0        0.879951   -0.354492    1.284232
      5          7           0        0.521905   -0.295221   -0.789381
      6          6           0       -0.513138    0.218296   -0.516722
 ---------------------------------------------------------------------
                    Distance matrix (angstroms):
                    1          2          3          4          5
     1  C    0.000000
     2  H    1.087833   0.000000
     3  H    1.087833   1.803550   0.000000
     4  H    1.089799   1.783763   1.784005   0.000000
     5  N    2.007361   2.715899   2.718108   2.105132   0.000000
     6  C    1.657435   2.196885   2.197249   2.347812   1.187163
                    6
     6  C    0.000000
 Symmetry turned off by external request.
 Stoichiometry    C2H3N
 Framework group  C1[X(C2H3N)]
 Deg. of freedom    12
 Full point group                 C1      NOp   1
 Rotational constants (GHZ):          46.2864197          14.4398171          11.8524326
 Leave Link  202 at Thu Oct 12 11:38:33 2023, MaxMem=   104857600 cpu:               0.0 elap:               0.0
 (Enter /opt/g16/l301.exe)
 Standard basis: STO-3G (5D, 7F)
 Ernie: Thresh=  0.10000D-02 Tol=  0.10000D-05 Strict=F.
    18 basis functions,    54 primitive gaussians,    18 cartesian basis functions
    11 alpha electrons       11 beta electrons
       nuclear repulsion energy        59.6538435151 Hartrees.
 IExCor=    0 DFT=F Ex=HF Corr=None ExCW=0 ScaHFX=  1.000000
 ScaDFX=  1.000000  1.000000  1.000000  1.000000 ScalE2=  1.000000  1.000000
 IRadAn=      5 IRanWt=     -1 IRanGd=            0 ICorTp=0 IEmpDi=  4
 NAtoms=    6 NActive=    6 NUniq=    6 SFac= 1.00D+00 NAtFMM=   60 NAOKFM=F Big=F
 Integral buffers will be    131072 words long.
 Raffenetti 1 integral format.
 Two-electron integral symmetry is turned off.
 Leave Link  301 at Thu Oct 12 11:38:34 2023, MaxMem=   104857600 cpu:               0.0 elap:               0.0
 (Enter /opt/g16/l402.exe)
 External calculation of energy and first derivatives.
 Running external command "python3 -u ../../src/gamesp.py R"
         input file       "/home/jh-li/scratch/g16/Gau-376502.EIn"
         output file      "/home/jh-li/scratch/g16/Gau-376502.EOu"
         message file     "/home/jh-li/scratch/g16/Gau-376502.EMs"
         fchk file        "/home/jh-li/scratch/g16/Gau-376502.EFC"
         mat. el file     "/home/jh-li/scratch/g16/Gau-376502.EUF"
>>> Running Amesp...
>>> Parsing Amesp output...
>>> 大师大法好！
 Recovered energy= -132.664885571     dipole=     -0.198400000000      0.229000000000      2.394500000000
 NRF= 0 NRA=   0 NVA=   0 HaveQM=F NVQ=       0
 Convergence limit is  0.750E-04 MaxStp= 10000 StMxLn= 3.00D-04 StpMin= 1.00D-06.
 Convergence criteria             0.00011250 0.00007500 0.00045000 0.00030000
  Step  NS  ND Rises OKQ   Scale  Max. Force  RMS Force Max. Disp.  RMS Disp.     Energy   Flag
     1   0   0   F    T  1.00D+00 0.00000000 0.00000000 0.00000000 0.00000000 -132.6648856 ====
 Running external command "python3 -u ../../src/gamesp.py R"
         input file       "/home/jh-li/scratch/g16/Gau-376502.EIn"
         output file      "/home/jh-li/scratch/g16/Gau-376502.EOu"
         message file     "/home/jh-li/scratch/g16/Gau-376502.EMs"
         fchk file        "/home/jh-li/scratch/g16/Gau-376502.EFC"
         mat. el file     "/home/jh-li/scratch/g16/Gau-376502.EUF"
>>> Running Amesp...
>>> Parsing Amesp output...
>>> 大师大法好！
 Recovered energy= -132.664885571     dipole=     -0.198400000000      0.229000000000      2.394500000000
 Energy=    -132.664886     NIter=   0.
 Dipole moment=      -0.198400       0.229000       2.394500
 Leave Link  402 at Thu Oct 12 11:38:37 2023, MaxMem=   104857600 cpu:               0.0 elap:               4.0
 (Enter /opt/g16/l716.exe)
 Dipole        =-1.98400000D-01 2.29000000D-01 2.39450000D+00
 -------------------------------------------------------------------
 Center     Atomic                   Forces (Hartrees/Bohr)
 Number     Number              X              Y              Z
 -------------------------------------------------------------------
      1        6          -0.013822377    0.007022563    0.005990458
      2        1          -0.000779970    0.000149056    0.001025502
      3        1          -0.000541065    0.000588266    0.000993295
      4        1          -0.000838061    0.000431218    0.000262885
      5        7          -0.000569285   -0.001320140   -0.027962850
      6        6           0.016550758   -0.006870963    0.019690709
 -------------------------------------------------------------------
 Cartesian Forces:  Max     0.027962850 RMS     0.009925765
 Leave Link  716 at Thu Oct 12 11:38:38 2023, MaxMem=   104857600 cpu:               0.0 elap:               0.0
 (Enter /opt/g16/l123.exe)
 IRC-IRC-IRC-IRC-IRC-IRC-IRC-IRC-IRC-IRC-IRC-IRC-IRC-IRC-IRC-IRC-IRC-IRC
 Pt  5 Step number   1 out of a maximum of  10
 Using modified Bulirsch-Stoer corrector integration.
   Using distance weighted interpolants to fit PES.
 PreDWI: IReCr0= 2 IReCr1= 1 IReCr2= 1 IReCr3= 1
 Modified Bulirsch-Stoer Extrapolation Cycles:
    EPS =    0.000010000000000
    Cycle     1 NS=    48
      PEZero:  N= 2 I= 1 D=  1.47D-03 Err=  3.30D-05
    Cycle     2 NS=    64 Truncation Error =  0.000033008
      PEZero:  N= 3 I= 2 D=  1.47D-03 Err=  2.19D-05
      PEZero:  N= 3 I= 1 D=  2.94D-03 Err=  1.17D-07
    Cycle     3 NS=    96 Truncation Error =  0.000000117
 BS completed in    3 cycles and     208 integration steps.
 Maximum DWI energy   std dev =  0.000003669 at pt    41
 Maximum DWI gradient std dev =  0.046000947 at pt    28
 SUMMARY OF CORRECTOR INTEGRATION:
   Predictor End Point Energy =  -132.664886
   Old End Point Energy       =  -132.664886
   Corrected End Point Energy =  -132.664893
   Predictor End-Start Dist.  =     0.281933
   Old End-Start Dist.        =     0.281933
   New End-Start Dist.        =     0.281874
   New End-Old End Dist.      =     0.007984
 CORRECTOR INTEGRATION CONVERGENCE:
   Recorrection delta-x convergence threshold:    0.010000
   Delta-x Convergence Met
 Point Number:   5          Path Number:   1
                    CURRENT STRUCTURE
                Cartesian Coordinates (Ang):                
 ---------------------------------------------------------------------
 Center     Atomic                     Coordinates (Angstroms)
 Number     Number                        X           Y           Z
 ---------------------------------------------------------------------
      1          6                   -0.088215    0.102612    1.081185
      2          1                   -0.096803    1.130248    1.436992
      3          1                   -0.881924   -0.490953    1.528851
      4          1                    0.879717   -0.354259    1.286675
      5          7                    0.521384   -0.294962   -0.789336
      6          6                   -0.512602    0.218030   -0.516778
 ---------------------------------------------------------------------
   CHANGE IN THE REACTION COORDINATE =    0.28187
   NET REACTION COORDINATE UP TO THIS POINT =    1.40913
  # OF POINTS ALONG THE PATH =   5
  # OF STEPS =   1

 Calculating another point on the path.
 Point Number  6 in FORWARD path direction.
 Using LQA Reaction Path Following.
   LQA: T_Est iteration completed in    3 iterations.
 IRC-IRC-IRC-IRC-IRC-IRC-IRC-IRC-IRC-IRC-IRC-IRC-IRC-IRC-IRC-IRC-IRC-IRC
 Leave Link  123 at Thu Oct 12 11:38:38 2023, MaxMem=   104857600 cpu:               0.0 elap:               0.0
 (Enter /opt/g16/l202.exe)
                          Input orientation:                          
 ---------------------------------------------------------------------
 Center     Atomic      Atomic             Coordinates (Angstroms)
 Number     Number       Type             X           Y           Z
 ---------------------------------------------------------------------
      1          6           0       -0.102631    0.109936    1.087615
      2          1           0       -0.108932    1.134420    1.453880
      3          1           0       -0.891787   -0.482735    1.545542
      4          1           0        0.866518   -0.347839    1.283915
      5          7           0        0.523367   -0.297366   -0.814796
      6          6           0       -0.497857    0.212101   -0.495848
 ---------------------------------------------------------------------
                    Distance matrix (angstroms):
                    1          2          3          4          5
     1  C    0.000000
     2  H    1.088007   0.000000
     3  H    1.087990   1.799015   0.000000
     4  H    1.089651   1.782550   1.782773   0.000000
     5  N    2.043755   2.756211   2.758299   2.127178   0.000000
     6  C    1.635236   2.191660   2.192088   2.311408   1.184982
                    6
     6  C    0.000000
 Symmetry turned off by external request.
 Stoichiometry    C2H3N
 Framework group  C1[X(C2H3N)]
 Deg. of freedom    12
 Full point group                 C1      NOp   1
 Rotational constants (GHZ):          48.2737739          14.0828485          11.7275334
 Leave Link  202 at Thu Oct 12 11:38:38 2023, MaxMem=   104857600 cpu:               0.0 elap:               0.0
 (Enter /opt/g16/l301.exe)
 Standard basis: STO-3G (5D, 7F)
 Ernie: Thresh=  0.10000D-02 Tol=  0.10000D-05 Strict=F.
    18 basis functions,    54 primitive gaussians,    18 cartesian basis functions
    11 alpha electrons       11 beta electrons
       nuclear repulsion energy        59.6179315048 Hartrees.
 IExCor=    0 DFT=F Ex=HF Corr=None ExCW=0 ScaHFX=  1.000000
 ScaDFX=  1.000000  1.000000  1.000000  1.000000 ScalE2=  1.000000  1.000000
 IRadAn=      5 IRanWt=     -1 IRanGd=            0 ICorTp=0 IEmpDi=  4
 NAtoms=    6 NActive=    6 NUniq=    6 SFac= 1.00D+00 NAtFMM=   60 NAOKFM=F Big=F
 Integral buffers will be    131072 words long.
 Raffenetti 1 integral format.
 Two-electron integral symmetry is turned off.
 Leave Link  301 at Thu Oct 12 11:38:38 2023, MaxMem=   104857600 cpu:               0.0 elap:               0.0
 (Enter /opt/g16/l402.exe)
 External calculation of energy and first derivatives.
 Running external command "python3 -u ../../src/gamesp.py R"
         input file       "/home/jh-li/scratch/g16/Gau-376502.EIn"
         output file      "/home/jh-li/scratch/g16/Gau-376502.EOu"
         message file     "/home/jh-li/scratch/g16/Gau-376502.EMs"
         fchk file        "/home/jh-li/scratch/g16/Gau-376502.EFC"
         mat. el file     "/home/jh-li/scratch/g16/Gau-376502.EUF"
>>> Running Amesp...
>>> Parsing Amesp output...
>>> 大师大法好！
 Recovered energy= -132.668553299     dipole=     -0.292600000000      0.271800000000      2.347300000000
 NRF= 0 NRA=   0 NVA=   0 HaveQM=F NVQ=       0
 Convergence limit is  0.750E-04 MaxStp= 10000 StMxLn= 3.00D-04 StpMin= 1.00D-06.
 Convergence criteria             0.00011250 0.00007500 0.00045000 0.00030000
  Step  NS  ND Rises OKQ   Scale  Max. Force  RMS Force Max. Disp.  RMS Disp.     Energy   Flag
     1   0   0   F    T  1.00D+00 0.00000000 0.00000000 0.00000000 0.00000000 -132.6685533 ====
 Running external command "python3 -u ../../src/gamesp.py R"
         input file       "/home/jh-li/scratch/g16/Gau-376502.EIn"
         output file      "/home/jh-li/scratch/g16/Gau-376502.EOu"
         message file     "/home/jh-li/scratch/g16/Gau-376502.EMs"
         fchk file        "/home/jh-li/scratch/g16/Gau-376502.EFC"
         mat. el file     "/home/jh-li/scratch/g16/Gau-376502.EUF"
>>> Running Amesp...
>>> Parsing Amesp output...
>>> 大师大法好！
 Recovered energy= -132.668553299     dipole=     -0.292600000000      0.271800000000      2.347300000000
 Energy=    -132.668553     NIter=   0.
 Dipole moment=      -0.292600       0.271800       2.347300
 Leave Link  402 at Thu Oct 12 11:38:42 2023, MaxMem=   104857600 cpu:               0.0 elap:               3.9
 (Enter /opt/g16/l716.exe)
 Dipole        =-2.92600000D-01 2.71800000D-01 2.34730000D+00
 -------------------------------------------------------------------
 Center     Atomic                   Forces (Hartrees/Bohr)
 Number     Number              X              Y              Z
 -------------------------------------------------------------------
      1        6          -0.015830992    0.008073590    0.007481411
      2        1          -0.001067054    0.000356945    0.001326046
      3        1          -0.000875449    0.000704649    0.001300726
      4        1          -0.001068878    0.000555740    0.000453504
      5        7          -0.002360176   -0.000722663   -0.032858550
      6        6           0.021202550   -0.008968261    0.022296863
 -------------------------------------------------------------------
 Cartesian Forces:  Max     0.032858550 RMS     0.011766987
 Leave Link  716 at Thu Oct 12 11:38:42 2023, MaxMem=   104857600 cpu:               0.0 elap:               0.0
 (Enter /opt/g16/l123.exe)
 IRC-IRC-IRC-IRC-IRC-IRC-IRC-IRC-IRC-IRC-IRC-IRC-IRC-IRC-IRC-IRC-IRC-IRC
 Pt  6 Step number   1 out of a maximum of  10
 Using modified Bulirsch-Stoer corrector integration.
   Using distance weighted interpolants to fit PES.
 PreDWI: IReCr0= 2 IReCr1= 1 IReCr2= 1 IReCr3= 1
 Modified Bulirsch-Stoer Extrapolation Cycles:
    EPS =    0.000010000000000
    Cycle     1 NS=    48
      PEZero:  N= 2 I= 1 D=  1.47D-03 Err=  3.10D-05
    Cycle     2 NS=    64 Truncation Error =  0.000030960
      PEZero:  N= 3 I= 2 D=  1.47D-03 Err=  2.06D-05
      PEZero:  N= 3 I= 1 D=  2.94D-03 Err=  9.45D-08
    Cycle     3 NS=    96 Truncation Error =  0.000000094
 BS completed in    3 cycles and     208 integration steps.
 Maximum DWI energy   std dev =  0.000004593 at pt    36
 Maximum DWI gradient std dev =  0.046949673 at pt    38
 SUMMARY OF CORRECTOR INTEGRATION:
   Predictor End Point Energy =  -132.668553
   Old End Point Energy       =  -132.668553
   Corrected End Point Energy =  -132.668564
   Predictor End-Start Dist.  =     0.281936
   Old End-Start Dist.        =     0.281936
   New End-Start Dist.        =     0.281854
   New End-Old End Dist.      =     0.009071
 CORRECTOR INTEGRATION CONVERGENCE:
   Recorrection delta-x convergence threshold:    0.010000
   Delta-x Convergence Met
 Point Number:   6          Path Number:   1
                    CURRENT STRUCTURE
                Cartesian Coordinates (Ang):                
 ---------------------------------------------------------------------
 Center     Atomic                     Coordinates (Angstroms)
 Number     Number                        X           Y           Z
 ---------------------------------------------------------------------
      1          6                   -0.102563    0.109908    1.087700
      2          1                   -0.109181    1.134507    1.453629
      3          1                   -0.892029   -0.482632    1.545276
      4          1                    0.866340   -0.347667    1.285518
      5          7                    0.522646   -0.297005   -0.814628
      6          6                   -0.497077    0.211703   -0.496173
 ---------------------------------------------------------------------
   CHANGE IN THE REACTION COORDINATE =    0.28185
   NET REACTION COORDINATE UP TO THIS POINT =    1.69099
  # OF POINTS ALONG THE PATH =   6
  # OF STEPS =   1

 Calculating another point on the path.
 Point Number  7 in FORWARD path direction.
 Using LQA Reaction Path Following.
   LQA: T_Est iteration completed in    3 iterations.
 IRC-IRC-IRC-IRC-IRC-IRC-IRC-IRC-IRC-IRC-IRC-IRC-IRC-IRC-IRC-IRC-IRC-IRC
 Leave Link  123 at Thu Oct 12 11:38:42 2023, MaxMem=   104857600 cpu:               0.0 elap:               0.0
 (Enter /opt/g16/l202.exe)
                          Input orientation:                          
 ---------------------------------------------------------------------
 Center     Atomic      Atomic             Coordinates (Angstroms)
 Number     Number       Type             X           Y           Z
 ---------------------------------------------------------------------
      1          6           0       -0.116700    0.117122    1.094663
      2          1           0       -0.122675    1.138758    1.470945
      3          1           0       -0.902805   -0.473360    1.562333
      4          1           0        0.852641   -0.340837    1.286094
      5          7           0        0.523495   -0.298845   -0.839973
      6          6           0       -0.481157    0.205153   -0.476157
 ---------------------------------------------------------------------
                    Distance matrix (angstroms):
                    1          2          3          4          5
     1  C    0.000000
     2  H    1.088744   0.000000
     3  H    1.088735   1.793286   0.000000
     4  H    1.089033   1.781743   1.781981   0.000000
     5  N    2.079831   2.797245   2.799261   2.151805   0.000000
     6  C    1.614947   2.188912   2.189431   2.276543   1.181398
                    6
     6  C    0.000000
 Symmetry turned off by external request.
 Stoichiometry    C2H3N
 Framework group  C1[X(C2H3N)]
 Deg. of freedom    12
 Full point group                 C1      NOp   1
 Rotational constants (GHZ):          50.6206975          13.7171117          11.5951001
 Leave Link  202 at Thu Oct 12 11:38:42 2023, MaxMem=   104857600 cpu:               0.1 elap:               0.1
 (Enter /opt/g16/l301.exe)
 Standard basis: STO-3G (5D, 7F)
 Ernie: Thresh=  0.10000D-02 Tol=  0.10000D-05 Strict=F.
    18 basis functions,    54 primitive gaussians,    18 cartesian basis functions
    11 alpha electrons       11 beta electrons
       nuclear repulsion energy        59.5967645636 Hartrees.
 IExCor=    0 DFT=F Ex=HF Corr=None ExCW=0 ScaHFX=  1.000000
 ScaDFX=  1.000000  1.000000  1.000000  1.000000 ScalE2=  1.000000  1.000000
 IRadAn=      5 IRanWt=     -1 IRanGd=            0 ICorTp=0 IEmpDi=  4
 NAtoms=    6 NActive=    6 NUniq=    6 SFac= 1.00D+00 NAtFMM=   60 NAOKFM=F Big=F
 Integral buffers will be    131072 words long.
 Raffenetti 1 integral format.
 Two-electron integral symmetry is turned off.
 Leave Link  301 at Thu Oct 12 11:38:42 2023, MaxMem=   104857600 cpu:               0.1 elap:               0.1
 (Enter /opt/g16/l402.exe)
 External calculation of energy and first derivatives.
 Running external command "python3 -u ../../src/gamesp.py R"
         input file       "/home/jh-li/scratch/g16/Gau-376502.EIn"
         output file      "/home/jh-li/scratch/g16/Gau-376502.EOu"
         message file     "/home/jh-li/scratch/g16/Gau-376502.EMs"
         fchk file        "/home/jh-li/scratch/g16/Gau-376502.EFC"
         mat. el file     "/home/jh-li/scratch/g16/Gau-376502.EUF"
>>> Running Amesp...
>>> Parsing Amesp output...
>>> 大师大法好！
 Recovered energy= -132.672832440     dipole=     -0.387300000000      0.315700000000      2.315600000000
 NRF= 0 NRA=   0 NVA=   0 HaveQM=F NVQ=       0
 Convergence limit is  0.750E-04 MaxStp= 10000 StMxLn= 3.00D-04 StpMin= 1.00D-06.
 Convergence criteria             0.00011250 0.00007500 0.00045000 0.00030000
  Step  NS  ND Rises OKQ   Scale  Max. Force  RMS Force Max. Disp.  RMS Disp.     Energy   Flag
     1   0   0   F    T  1.00D+00 0.00000000 0.00000000 0.00000000 0.00000000 -132.6728324 ====
 Running external command "python3 -u ../../src/gamesp.py R"
         input file       "/home/jh-li/scratch/g16/Gau-376502.EIn"
         output file      "/home/jh-li/scratch/g16/Gau-376502.EOu"
         message file     "/home/jh-li/scratch/g16/Gau-376502.EMs"
         fchk file        "/home/jh-li/scratch/g16/Gau-376502.EFC"
         mat. el file     "/home/jh-li/scratch/g16/Gau-376502.EUF"
>>> Running Amesp...
>>> Parsing Amesp output...
>>> 大师大法好！
 Recovered energy= -132.672832440     dipole=     -0.387300000000      0.315700000000      2.315600000000
 Energy=    -132.672832     NIter=   0.
 Dipole moment=      -0.387300       0.315700       2.315600
 Leave Link  402 at Thu Oct 12 11:38:46 2023, MaxMem=   104857600 cpu:               0.0 elap:               4.0
 (Enter /opt/g16/l716.exe)
 Dipole        =-3.87300000D-01 3.15700000D-01 2.31560000D+00
 -------------------------------------------------------------------
 Center     Atomic                   Forces (Hartrees/Bohr)
 Number     Number              X              Y              Z
 -------------------------------------------------------------------
      1        6          -0.018099319    0.009260646    0.009225825
      2        1          -0.001223460    0.000324406    0.001198863
      3        1          -0.000948268    0.000834732    0.001158606
      4        1          -0.001118756    0.000600416    0.000810388
      5        7          -0.001759346   -0.001299516   -0.038181638
      6        6           0.023149148   -0.009720684    0.025787956
 -------------------------------------------------------------------
 Cartesian Forces:  Max     0.038181638 RMS     0.013467497
 Leave Link  716 at Thu Oct 12 11:38:46 2023, MaxMem=   104857600 cpu:               0.0 elap:               0.0
 (Enter /opt/g16/l123.exe)
 IRC-IRC-IRC-IRC-IRC-IRC-IRC-IRC-IRC-IRC-IRC-IRC-IRC-IRC-IRC-IRC-IRC-IRC
 Pt  7 Step number   1 out of a maximum of  10
 Using modified Bulirsch-Stoer corrector integration.
   Using distance weighted interpolants to fit PES.
 PreDWI: IReCr0= 2 IReCr1= 1 IReCr2= 1 IReCr3= 1
 Modified Bulirsch-Stoer Extrapolation Cycles:
    EPS =    0.000010000000000
    Cycle     1 NS=    48
      PEZero:  N= 2 I= 1 D=  1.47D-03 Err=  2.62D-05
    Cycle     2 NS=    64 Truncation Error =  0.000026197
      PEZero:  N= 3 I= 2 D=  1.47D-03 Err=  1.74D-05
      PEZero:  N= 3 I= 1 D=  2.94D-03 Err=  8.73D-08
    Cycle     3 NS=    96 Truncation Error =  0.000000087
 BS completed in    3 cycles and     208 integration steps.
 Maximum DWI energy   std dev =  0.000002852 at pt    29
 Maximum DWI gradient std dev =  0.031721927 at pt    38
 SUMMARY OF CORRECTOR INTEGRATION:
   Predictor End Point Energy =  -132.672832
   Old End Point Energy       =  -132.672832
   Corrected End Point Energy =  -132.672838
   Predictor End-Start Dist.  =     0.281937
   Old End-Start Dist.        =     0.281937
   New End-Start Dist.        =     0.281901
   New End-Old End Dist.      =     0.006256
 CORRECTOR INTEGRATION CONVERGENCE:
   Recorrection delta-x convergence threshold:    0.010000
   Delta-x Convergence Met
 Point Number:   7          Path Number:   1
                    CURRENT STRUCTURE
                Cartesian Coordinates (Ang):                
 ---------------------------------------------------------------------
 Center     Atomic                     Coordinates (Angstroms)
 Number     Number                        X           Y           Z
 ---------------------------------------------------------------------
      1          6                   -0.116669    0.117109    1.094660
      2          1                   -0.122449    1.138878    1.469535
      3          1                   -0.902824   -0.473755    1.560918
      4          1                    0.852746   -0.340805    1.287618
      5          7                    0.523130   -0.298662   -0.839895
      6          6                   -0.480798    0.204977   -0.476123
 ---------------------------------------------------------------------
   CHANGE IN THE REACTION COORDINATE =    0.28190
   NET REACTION COORDINATE UP TO THIS POINT =    1.97289
  # OF POINTS ALONG THE PATH =   7
  # OF STEPS =   1

 Calculating another point on the path.
 Point Number  8 in FORWARD path direction.
 Using LQA Reaction Path Following.
   LQA: T_Est iteration completed in    3 iterations.
 IRC-IRC-IRC-IRC-IRC-IRC-IRC-IRC-IRC-IRC-IRC-IRC-IRC-IRC-IRC-IRC-IRC-IRC
 Leave Link  123 at Thu Oct 12 11:38:46 2023, MaxMem=   104857600 cpu:               0.0 elap:               0.0
 (Enter /opt/g16/l202.exe)
                          Input orientation:                          
 ---------------------------------------------------------------------
 Center     Atomic      Atomic             Coordinates (Angstroms)
 Number     Number       Type             X           Y           Z
[...]
   CHANGE IN THE REACTION COORDINATE =    0.28178
   NET REACTION COORDINATE UP TO THIS POINT =    2.53623
  # OF POINTS ALONG THE PATH =  19
  # OF STEPS =   2

 Calculating another point on the path.
 Point Number 10 in REVERSE path direction.
 Using LQA Reaction Path Following.
   LQA: T_Est iteration completed in    3 iterations.
 IRC-IRC-IRC-IRC-IRC-IRC-IRC-IRC-IRC-IRC-IRC-IRC-IRC-IRC-IRC-IRC-IRC-IRC
 Leave Link  123 at Thu Oct 12 11:40:13 2023, MaxMem=   104857600 cpu:               0.0 elap:               0.0
 (Enter /opt/g16/l202.exe)
                          Input orientation:                          
 ---------------------------------------------------------------------
 Center     Atomic      Atomic             Coordinates (Angstroms)
 Number     Number       Type             X           Y           Z
 ---------------------------------------------------------------------
      1          6           0        0.145138   -0.008963    1.063591
      2          1           0        0.046955    1.049859    1.297852
      3          1           0       -0.740896   -0.551406    1.390165
      4          1           0        1.020942   -0.410469    1.569653
      5          7           0        0.391384   -0.214319   -0.453072
      6          6           0       -0.628072    0.251113   -0.892409
 ---------------------------------------------------------------------
                    Distance matrix (angstroms):
                    1          2          3          4          5
     1  C    0.000000
     2  H    1.088863   0.000000
     3  H    1.089013   1.786975   0.000000
     4  H    1.088273   1.776256   1.776556   0.000000
     5  N    1.550186   2.186896   2.189340   2.127495   0.000000
     6  C    2.119299   2.427117   2.422170   3.036229   1.203717
                    6
     6  C    0.000000
 Symmetry turned off by external request.
 Stoichiometry    C2H3N
 Framework group  C1[X(C2H3N)]
 Deg. of freedom    12
 Full point group                 C1      NOp   1
 Rotational constants (GHZ):          51.7543473          14.1547844          11.9615005
 Leave Link  202 at Thu Oct 12 11:40:13 2023, MaxMem=   104857600 cpu:               0.0 elap:               0.0
 (Enter /opt/g16/l301.exe)
 Standard basis: STO-3G (5D, 7F)
 Ernie: Thresh=  0.10000D-02 Tol=  0.10000D-05 Strict=F.
    18 basis functions,    54 primitive gaussians,    18 cartesian basis functions
    11 alpha electrons       11 beta electrons
       nuclear repulsion energy        60.2228380350 Hartrees.
 IExCor=    0 DFT=F Ex=HF Corr=None ExCW=0 ScaHFX=  1.000000
 ScaDFX=  1.000000  1.000000  1.000000  1.000000 ScalE2=  1.000000  1.000000
 IRadAn=      5 IRanWt=     -1 IRanGd=            0 ICorTp=0 IEmpDi=  4
 NAtoms=    6 NActive=    6 NUniq=    6 SFac= 1.00D+00 NAtFMM=   60 NAOKFM=F Big=F
 Integral buffers will be    131072 words long.
 Raffenetti 1 integral format.
 Two-electron integral symmetry is turned off.
 Leave Link  301 at Thu Oct 12 11:40:13 2023, MaxMem=   104857600 cpu:               0.0 elap:               0.0
 (Enter /opt/g16/l402.exe)
 External calculation of energy and first derivatives.
 Running external command "python3 -u ../../src/gamesp.py R"
         input file       "/home/jh-li/scratch/g16/Gau-376502.EIn"
         output file      "/home/jh-li/scratch/g16/Gau-376502.EOu"
         message file     "/home/jh-li/scratch/g16/Gau-376502.EMs"
         fchk file        "/home/jh-li/scratch/g16/Gau-376502.EFC"
         mat. el file     "/home/jh-li/scratch/g16/Gau-376502.EUF"
>>> Running Amesp...
>>> Parsing Amesp output...
>>> 大师大法好！
 Recovered energy= -132.677605568     dipole=      0.308700000000     -0.009900000000      2.406600000000
 NRF= 0 NRA=   0 NVA=   0 HaveQM=F NVQ=       0
 Convergence limit is  0.750E-04 MaxStp= 10000 StMxLn= 3.00D-04 StpMin= 1.00D-06.
 Convergence criteria             0.00011250 0.00007500 0.00045000 0.00030000
  Step  NS  ND Rises OKQ   Scale  Max. Force  RMS Force Max. Disp.  RMS Disp.     Energy   Flag
     1   0   0   F    T  1.00D+00 0.00000000 0.00000000 0.00000000 0.00000000 -132.6776056 ====
 Running external command "python3 -u ../../src/gamesp.py R"
         input file       "/home/jh-li/scratch/g16/Gau-376502.EIn"
         output file      "/home/jh-li/scratch/g16/Gau-376502.EOu"
         message file     "/home/jh-li/scratch/g16/Gau-376502.EMs"
         fchk file        "/home/jh-li/scratch/g16/Gau-376502.EFC"
         mat. el file     "/home/jh-li/scratch/g16/Gau-376502.EUF"
>>> Running Amesp...
>>> Parsing Amesp output...
>>> 大师大法好！
 Recovered energy= -132.677605568     dipole=      0.308700000000     -0.009900000000      2.406600000000
 Energy=    -132.677606     NIter=   0.
 Dipole moment=       0.308700      -0.009900       2.406600
 Leave Link  402 at Thu Oct 12 11:40:17 2023, MaxMem=   104857600 cpu:               0.1 elap:               3.9
 (Enter /opt/g16/l716.exe)
 Dipole        = 3.08700000D-01-9.90000000D-03 2.40660000D+00
 -------------------------------------------------------------------
 Center     Atomic                   Forces (Hartrees/Bohr)
 Number     Number              X              Y              Z
 -------------------------------------------------------------------
      1        6           0.013894452   -0.006242542    0.004831823
      2        1           0.000669985   -0.000202003    0.000886790
      3        1           0.000611885   -0.000284004    0.000891428
      4        1           0.000904930   -0.000438162    0.000007878
      5        7          -0.020813815    0.010985972    0.018302946
      6        6           0.004732563   -0.003819261   -0.024920866
 -------------------------------------------------------------------
 Cartesian Forces:  Max     0.024920866 RMS     0.010016226
 Leave Link  716 at Thu Oct 12 11:40:17 2023, MaxMem=   104857600 cpu:               0.0 elap:               0.0
 (Enter /opt/g16/l123.exe)
 IRC-IRC-IRC-IRC-IRC-IRC-IRC-IRC-IRC-IRC-IRC-IRC-IRC-IRC-IRC-IRC-IRC-IRC
 Pt 20 Step number   1 out of a maximum of  10
 Using modified Bulirsch-Stoer corrector integration.
   Using distance weighted interpolants to fit PES.
 PreDWI: IReCr0= 2 IReCr1= 1 IReCr2= 1 IReCr3= 1
 Modified Bulirsch-Stoer Extrapolation Cycles:
    EPS =    0.000010000000000
    Cycle     1 NS=    48
      PEZero:  N= 2 I= 1 D=  1.47D-03 Err=  7.46D-05
    Cycle     2 NS=    64 Truncation Error =  0.000074553
      PEZero:  N= 3 I= 2 D=  1.47D-03 Err=  4.97D-05
      PEZero:  N= 3 I= 1 D=  2.94D-03 Err=  2.42D-07
    Cycle     3 NS=    96 Truncation Error =  0.000000242
 BS completed in    3 cycles and     208 integration steps.
 Maximum DWI energy   std dev =  0.000003225 at pt    16
 Maximum DWI gradient std dev =  0.068231514 at pt    29
 SUMMARY OF CORRECTOR INTEGRATION:
   Predictor End Point Energy =  -132.677606
   Old End Point Energy       =  -132.677606
   Corrected End Point Energy =  -132.677622
   Predictor End-Start Dist.  =     0.281920
   Old End-Start Dist.        =     0.281920
   New End-Start Dist.        =     0.281802
   New End-Old End Dist.      =     0.011624
 CORRECTOR INTEGRATION CONVERGENCE:
   Recorrection delta-x convergence threshold:    0.010000
   Delta-x Convergence NOT Met
 IRC-IRC-IRC-IRC-IRC-IRC-IRC-IRC-IRC-IRC-IRC-IRC-IRC-IRC-IRC-IRC-IRC-IRC
 Leave Link  123 at Thu Oct 12 11:40:17 2023, MaxMem=   104857600 cpu:               0.0 elap:               0.0
 (Enter /opt/g16/l202.exe)
                          Input orientation:                          
 ---------------------------------------------------------------------
 Center     Atomic      Atomic             Coordinates (Angstroms)
 Number     Number       Type             X           Y           Z
 ---------------------------------------------------------------------
      1          6           0        0.145371   -0.009042    1.063733
      2          1           0        0.047322    1.049680    1.299295
      3          1           0       -0.740392   -0.551483    1.391625
      4          1           0        1.022259   -0.411255    1.566741
      5          7           0        0.390708   -0.214045   -0.453457
      6          6           0       -0.627245    0.250761   -0.891994
 ---------------------------------------------------------------------
                    Distance matrix (angstroms):
                    1          2          3          4          5
     1  C    0.000000
     2  H    1.089034   0.000000
     3  H    1.089188   1.786824   0.000000
     4  H    1.087992   1.776616   1.776871   0.000000
     5  N    1.550510   2.187933   2.190337   2.125782   0.000000
     6  C    2.118798   2.427974   2.423079   3.033894   1.201911
                    6
     6  C    0.000000
 Symmetry turned off by external request.
 Stoichiometry    C2H3N
 Framework group  C1[X(C2H3N)]
 Deg. of freedom    12
 Full point group                 C1      NOp   1
 Rotational constants (GHZ):          51.8332179          14.1577801          11.9676962
 Leave Link  202 at Thu Oct 12 11:40:17 2023, MaxMem=   104857600 cpu:               0.0 elap:               0.0
 (Enter /opt/g16/l301.exe)
 Standard basis: STO-3G (5D, 7F)
 Ernie: Thresh=  0.10000D-02 Tol=  0.10000D-05 Strict=F.
    18 basis functions,    54 primitive gaussians,    18 cartesian basis functions
    11 alpha electrons       11 beta electrons
       nuclear repulsion energy        60.2491379374 Hartrees.
 IExCor=    0 DFT=F Ex=HF Corr=None ExCW=0 ScaHFX=  1.000000
 ScaDFX=  1.000000  1.000000  1.000000  1.000000 ScalE2=  1.000000  1.000000
 IRadAn=      5 IRanWt=     -1 IRanGd=            0 ICorTp=0 IEmpDi=  4
 NAtoms=    6 NActive=    6 NUniq=    6 SFac= 1.00D+00 NAtFMM=   60 NAOKFM=F Big=F
 Integral buffers will be    131072 words long.
 Raffenetti 1 integral format.
 Two-electron integral symmetry is turned off.
 Leave Link  301 at Thu Oct 12 11:40:17 2023, MaxMem=   104857600 cpu:               0.1 elap:               0.0
 (Enter /opt/g16/l402.exe)
 External calculation of energy and first derivatives.
 Running external command "python3 -u ../../src/gamesp.py R"
         input file       "/home/jh-li/scratch/g16/Gau-376502.EIn"
         output file      "/home/jh-li/scratch/g16/Gau-376502.EOu"
         message file     "/home/jh-li/scratch/g16/Gau-376502.EMs"
         fchk file        "/home/jh-li/scratch/g16/Gau-376502.EFC"
         mat. el file     "/home/jh-li/scratch/g16/Gau-376502.EUF"
>>> Running Amesp...
>>> Parsing Amesp output...
>>> 大师大法好！
 Recovered energy= -132.677625562     dipole=      0.313900000000     -0.012100000000      2.411500000000
 NRF= 0 NRA=   0 NVA=   0 HaveQM=F NVQ=       0
 Convergence limit is  0.750E-04 MaxStp= 10000 StMxLn= 3.00D-04 StpMin= 1.00D-06.
 Convergence criteria             0.00011250 0.00007500 0.00045000 0.00030000
  Step  NS  ND Rises OKQ   Scale  Max. Force  RMS Force Max. Disp.  RMS Disp.     Energy   Flag
     1   0   0   F    T  1.00D+00 0.00000000 0.00000000 0.00000000 0.00000000 -132.6776256 ====
 Running external command "python3 -u ../../src/gamesp.py R"
         input file       "/home/jh-li/scratch/g16/Gau-376502.EIn"
         output file      "/home/jh-li/scratch/g16/Gau-376502.EOu"
         message file     "/home/jh-li/scratch/g16/Gau-376502.EMs"
         fchk file        "/home/jh-li/scratch/g16/Gau-376502.EFC"
         mat. el file     "/home/jh-li/scratch/g16/Gau-376502.EUF"
>>> Running Amesp...
>>> Parsing Amesp output...
>>> 大师大法好！
 Recovered energy= -132.677625562     dipole=      0.313900000000     -0.012100000000      2.411500000000
 Energy=    -132.677626     NIter=   0.
 Dipole moment=       0.313900      -0.012100       2.411500
 Leave Link  402 at Thu Oct 12 11:40:21 2023, MaxMem=   104857600 cpu:               0.0 elap:               3.9
 (Enter /opt/g16/l716.exe)
 Dipole        = 3.13900000D-01-1.21000000D-02 2.41150000D+00
 -------------------------------------------------------------------
 Center     Atomic                   Forces (Hartrees/Bohr)
 Number     Number              X              Y              Z
 -------------------------------------------------------------------
      1        6           0.013844160   -0.006232680    0.004751147
      2        1           0.000742023   -0.000296612    0.000746618
      3        1           0.000723091   -0.000293346    0.000744592
      4        1           0.000951707   -0.000440947    0.000285354
      5        7          -0.018138713    0.009778478    0.019602252
      6        6           0.001877732   -0.002514894   -0.026129963
 -------------------------------------------------------------------
 Cartesian Forces:  Max     0.026129963 RMS     0.009883001
 Leave Link  716 at Thu Oct 12 11:40:21 2023, MaxMem=   104857600 cpu:               0.0 elap:               0.0
 (Enter /opt/g16/l123.exe)
 IRC-IRC-IRC-IRC-IRC-IRC-IRC-IRC-IRC-IRC-IRC-IRC-IRC-IRC-IRC-IRC-IRC-IRC
 Error in corrector energy =           0.0000038480
 Magnitude of corrector gradient =     0.0411166464
 Magnitude of analytic gradient =      0.0419300219
 Magnitude of difference =             0.0024332232
 Angle between gradients (degrees)=    3.1649
 Pt 20 Step number   2 out of a maximum of  10
 Using modified Bulirsch-Stoer corrector integration.
   Using distance weighted interpolants to fit PES.
 PreDWI: IReCr0= 2 IReCr1= 1 IReCr2= 1 IReCr3= 1
 Modified Bulirsch-Stoer Extrapolation Cycles:
    EPS =    0.000010000000000
    Cycle     1 NS=    48
      PEZero:  N= 2 I= 1 D=  1.47D-03 Err=  4.43D-05
    Cycle     2 NS=    64 Truncation Error =  0.000044272
      PEZero:  N= 3 I= 2 D=  1.47D-03 Err=  2.95D-05
      PEZero:  N= 3 I= 1 D=  2.94D-03 Err=  2.45D-07
    Cycle     3 NS=    96 Truncation Error =  0.000000245
 BS completed in    3 cycles and     208 integration steps.
 Maximum DWI energy   std dev =  0.000002830 at pt    16
 Maximum DWI gradient std dev =  0.093379348 at pt    38
 SUMMARY OF CORRECTOR INTEGRATION:
   Predictor End Point Energy =  -132.677606
   Old End Point Energy       =  -132.677626
   Corrected End Point Energy =  -132.677629
   Predictor End-Start Dist.  =     0.281920
   Old End-Start Dist.        =     0.281802
   New End-Start Dist.        =     0.281774
   New End-Old End Dist.      =     0.005786
 CORRECTOR INTEGRATION CONVERGENCE:
   Recorrection delta-x convergence threshold:    0.010000
   Delta-x Convergence Met
 Point Number:  10          Path Number:   2
                    CURRENT STRUCTURE
                Cartesian Coordinates (Ang):                
 ---------------------------------------------------------------------
 Center     Atomic                     Coordinates (Angstroms)
 Number     Number                        X           Y           Z
 ---------------------------------------------------------------------
      1          6                    0.145042   -0.008895    1.063657
      2          1                    0.046293    1.049969    1.299803
      3          1                   -0.741136   -0.551029    1.392063
      4          1                    1.022372   -0.411367    1.564775
      5          7                    0.390750   -0.214049   -0.453215
      6          6                   -0.627160    0.250711   -0.892198
 ---------------------------------------------------------------------
   CHANGE IN THE REACTION COORDINATE =    0.28177
   NET REACTION COORDINATE UP TO THIS POINT =    2.81801
  # OF POINTS ALONG THE PATH =  20
  # OF STEPS =   2

 Maximum number of steps reached.
 Calculation of REVERSE path complete.
 Reaction path calculation complete.
 
 Energies reported relative to the TS energy of        -132.652518
 --------------------------------------------------------------------------
    Summary of reaction path following
 --------------------------------------------------------------------------
                        Energy    RxCoord
   1                   -0.02511  -2.81801
   2                   -0.02183  -2.53623
   3                   -0.01866  -2.25445
   4                   -0.01567  -1.97266
   5                   -0.01289  -1.69086
   6                   -0.01041  -1.40904
   7                   -0.00828  -1.12723
   8                   -0.00654  -0.84541
   9                   -0.00525  -0.56360
  10                   -0.00444  -0.28197
  11                    0.00000   0.00000
  12                   -0.00447   0.28197
  13                   -0.00542   0.56360
  14                   -0.00704   0.84542
  15                   -0.00937   1.12726
  16                   -0.01238   1.40913
  17                   -0.01605   1.69099
  18                   -0.02032   1.97289
  19                   -0.02513   2.25474
  20                   -0.03037   2.53664
  21                   -0.03596   2.81848
 --------------------------------------------------------------------------
 
 Total number of points:                   20
 Total number of gradient calculations:    32
 Total number of Hessian calculations:      0
 IRC-IRC-IRC-IRC-IRC-IRC-IRC-IRC-IRC-IRC-IRC-IRC-IRC-IRC-IRC-IRC-IRC-IRC
 Leave Link  123 at Thu Oct 12 11:40:21 2023, MaxMem=   104857600 cpu:               0.0 elap:               0.0
 (Enter /opt/g16/l202.exe)
                          Input orientation:                          
 ---------------------------------------------------------------------
 Center     Atomic      Atomic             Coordinates (Angstroms)
 Number     Number       Type             X           Y           Z
 ---------------------------------------------------------------------
      1          6           0        0.145371   -0.009042    1.063733
      2          1           0        0.047322    1.049680    1.299295
      3          1           0       -0.740392   -0.551483    1.391625
      4          1           0        1.022259   -0.411255    1.566741
      5          7           0        0.390708   -0.214045   -0.453457
      6          6           0       -0.627245    0.250761   -0.891994
 ---------------------------------------------------------------------
                    Distance matrix (angstroms):
                    1          2          3          4          5
     1  C    0.000000
     2  H    1.089034   0.000000
     3  H    1.089188   1.786824   0.000000
     4  H    1.087992   1.776616   1.776871   0.000000
     5  N    1.550510   2.187933   2.190337   2.125782   0.000000
     6  C    2.118798   2.427974   2.423079   3.033894   1.201911
                    6
     6  C    0.000000
 Symmetry turned off by external request.
 Stoichiometry    C2H3N
 Framework group  C1[X(C2H3N)]
 Deg. of freedom    12
 Full point group                 C1      NOp   1
 Rotational constants (GHZ):          51.8332179          14.1577801          11.9676962
 Leave Link  202 at Thu Oct 12 11:40:21 2023, MaxMem=   104857600 cpu:               0.0 elap:               0.0
 (Enter /opt/g16/l601.exe)
 Leave Link  601 at Thu Oct 12 11:40:21 2023, MaxMem=   104857600 cpu:               0.0 elap:               0.0
 (Enter /opt/g16/l9999.exe)

 This type of calculation cannot be archived.


 THE ENLIGHTENED ONE, BECAUSE HE SAW MANKIND DROWNING  
 IN THE GREAT SEA OF BIRTH, DEATH, AND SORROW, LONGED TO SAVE 
 THEM, FOR THIS HE WAS MOVED TO PITY.                         
 BECAUSE HE SAW MEN OF THE WORLD STRAYING IN FALSE PATHS, AND 
 NONE TO GUIDE THEM, FOR THIS HE WAS MOVED TO PITY.           
                     ..................                       
 BECAUSE HE SAW THE MEN OF THE WORLD PLOUGHING THEIR FIELDS,  
 SOWING THE SEED, TRAFFICKING, HUCKSTERING, BUYING, SELLING,  
 AND AT THE END WINNOWING NOTHING BUT BITTERNESS,             
 FOR THIS HE WAS MOVED TO PITY......                   
                   BUDAH'S PITY - UPSAKA SILA SUTRA           
 Job cpu time:       0 days  0 hours  0 minutes  7.4 seconds.
 Elapsed time:       0 days  0 hours  2 minutes 12.2 seconds.
 File lengths (MBytes):  RWF=      6 Int=      0 D2E=      0 Chk=      2 Scr=      1
 Normal termination of Gaussian 16 at Thu Oct 12 11:40:21 2023.
